       N       E                     dE             d eps       ncg     rms          rms(c)
DAV:   1     0.102887919464E+04    0.10289E+04   -0.61216E+04   864   0.473E+02
DAV:   2    -0.116654720480E+03   -0.11455E+04   -0.10827E+04  1224   0.130E+02
DAV:   3    -0.227917681170E+03   -0.11126E+03   -0.11069E+03  1152   0.424E+01
DAV:   4    -0.229516756380E+03   -0.15991E+01   -0.15978E+01  1116   0.609E+00
DAV:   5    -0.229530270994E+03   -0.13515E-01   -0.13513E-01  1080   0.577E-01    0.266E+01
DAV:   6    -0.208341774678E+03    0.21188E+02   -0.45278E+01   864   0.882E+00    0.154E+01
DAV:   7    -0.227144113542E+03   -0.18802E+02   -0.22947E+01  1008   0.569E+00    0.911E+00
DAV:   8    -0.231528521335E+03   -0.43844E+01   -0.52343E+00   900   0.304E+00    0.519E+00
DAV:   9    -0.232387765351E+03   -0.85924E+00   -0.10244E+00  1044   0.134E+00    0.106E+00
DAV:  10    -0.232472740416E+03   -0.84975E-01   -0.11762E-01  1116   0.515E-01    0.709E-01
DAV:  11    -0.232481244715E+03   -0.85043E-02   -0.49434E-03  1080   0.118E-01    0.441E-01
DAV:  12    -0.232491786442E+03   -0.10542E-01   -0.76026E-03   972   0.121E-01    0.140E-01
DAV:  13    -0.232493277578E+03   -0.14911E-02   -0.17138E-03  1080   0.595E-02    0.368E-02
DAV:  14    -0.232493344563E+03   -0.66985E-04   -0.63721E-05  1152   0.127E-02    0.194E-02
DAV:  15    -0.232493408877E+03   -0.64315E-04   -0.57706E-05  1008   0.105E-02    0.892E-03
DAV:  16    -0.232493417420E+03   -0.85427E-05   -0.50298E-06   936   0.355E-03
   1 F= -.23249342E+03 E0= -.23249342E+03  d E =-.232493E+03  mag=    -0.0037
