 vasp.5.4.4.18Apr17-6-g9f103f2a35 (build Nov 08 2019 15:19:53) gamma-only       
  
 executed on             LinuxIFC date 2020.08.07  22:03:25
 running on   36 total cores
 distrk:  each k-point on   36 cores,    1 groups
 distr:  one band on NCORES_PER_BAND=   1 cores,   36 groups


--------------------------------------------------------------------------------------------------------


 INCAR:
 POTCAR:    PAW_PBE Mg 13Apr2007                  
 POTCAR:    PAW_PBE Se 06Sep2000                  

 ----------------------------------------------------------------------------- 
|                                                                             |
|           W    W    AA    RRRRR   N    N  II  N    N   GGGG   !!!           |
|           W    W   A  A   R    R  NN   N  II  NN   N  G    G  !!!           |
|           W    W  A    A  R    R  N N  N  II  N N  N  G       !!!           |
|           W WW W  AAAAAA  RRRRR   N  N N  II  N  N N  G  GGG   !            |
|           WW  WW  A    A  R   R   N   NN  II  N   NN  G    G                |
|           W    W  A    A  R    R  N    N  II  N    N   GGGG   !!!           |
|                                                                             |
|      For optimal performance we recommend to set                            |
|        NCORE= 4 - approx SQRT( number of cores)                             |
|      NCORE specifies how many cores store one orbital (NPAR=cpu/NCORE).     |
|      This setting can  greatly improve the performance of VASP for DFT.     |
|      The default,   NCORE=1            might be grossly inefficient         |
|      on modern multi-core architectures or massively parallel machines.     |
|      Do your own testing !!!!                                               |
|      Unfortunately you need to use the default for GW and RPA calculations. |
|      (for HF NCORE is supported but not extensively tested yet)             |
|                                                                             |
 ----------------------------------------------------------------------------- 

 POTCAR:    PAW_PBE Mg 13Apr2007                  
   VRHFIN =Mg: s2p0                                                             
   LEXCH  = PE                                                                  
   EATOM  =    23.0369 eV,    1.6932 Ry                                         
                                                                                
   TITEL  = PAW_PBE Mg 13Apr2007                                                
   LULTRA =        F    use ultrasoft PP ?                                      
   IUNSCR =        1    unscreen: 0-lin 1-nonlin 2-no                           
   RPACOR =    1.500    partial core radius                                     
   POMASS =   24.305; ZVAL   =    2.000    mass and valenz                      
   RCORE  =    2.000    outmost cutoff radius                                   
   RWIGS  =    2.880; RWIGS  =    1.524    wigner-seitz radius (au A)           
   ENMAX  =  200.000; ENMIN  =  100.000 eV                                      
   RCLOC  =    1.506    cutoff for local pot                                    
   LCOR   =        T    correct aug charges                                     
   LPAW   =        T    paw PP                                                  
   EAUG   =  454.734                                                            
   DEXC   =    0.000                                                            
   RMAX   =    2.045    core radius for proj-oper                               
   RAUG   =    1.300    factor for augmentation sphere                          
   RDEP   =    2.025    radius for radial grids                                 
   RDEPT  =    1.942    core radius for aug-charge                              
                                                                                
   Atomic configuration                                                         
    6 entries                                                                   
     n  l   j            E        occ.                                          
     1  0  0.50     -1259.6230   2.0000                                         
     2  0  0.50       -79.8442   2.0000                                         
     2  1  1.50       -46.6121   6.0000                                         
     3  0  0.50        -4.7055   2.0000                                         
     3  1  0.50        -1.3660   0.0000                                         
     3  2  1.50        -1.3606   0.0000                                         
   Description                                                                  
     l       E           TYP  RCUT    TYP  RCUT                                 
     0     -4.7054661     23  2.000                                             
     0     27.2116520     23  2.000                                             
     1      1.3605826     23  2.000                                             
     1     27.2116520     23  2.000                                             
     2     -1.3605826     23  2.000                                             
  local pseudopotential read in
  partial core-charges read in
  partial kinetic energy density read in
  atomic valenz-charges read in
  non local Contribution for L=           0  read in
    real space projection operators read in
  non local Contribution for L=           0  read in
    real space projection operators read in
  non local Contribution for L=           1  read in
    real space projection operators read in
  non local Contribution for L=           1  read in
    real space projection operators read in
  non local Contribution for L=           2  read in
    real space projection operators read in
    PAW grid and wavefunctions read in
 
   number of l-projection  operators is LMAX  =           5
   number of lm-projection operators is LMMAX =          13
 
 POTCAR:    PAW_PBE Se 06Sep2000                  
   VRHFIN =Se: s2p4                                                             
   LEXCH  = PE                                                                  
   EATOM  =   257.1286 eV,   18.8984 Ry                                         
                                                                                
   TITEL  = PAW_PBE Se 06Sep2000                                                
   LULTRA =        F    use ultrasoft PP ?                                      
   IUNSCR =        1    unscreen: 0-lin 1-nonlin 2-no                           
   RPACOR =    1.900    partial core radius                                     
   POMASS =   78.960; ZVAL   =    6.000    mass and valenz                      
   RCORE  =    2.100    outmost cutoff radius                                   
   RWIGS  =    2.200; RWIGS  =    1.164    wigner-seitz radius (au A)           
   ENMAX  =  211.555; ENMIN  =  158.666 eV                                      
   ICORE  =        3    local potential                                         
   LCOR   =        T    correct aug charges                                     
   LPAW   =        T    paw PP                                                  
   EAUG   =  446.842                                                            
   DEXC   =    0.000                                                            
   RMAX   =    2.147    core radius for proj-oper                               
   RAUG   =    1.300    factor for augmentation sphere                          
   RDEP   =    2.177    radius for radial grids                                 
   RDEPT  =    1.928    core radius for aug-charge                              
                                                                                
   Atomic configuration                                                         
   10 entries                                                                   
     n  l   j            E        occ.                                          
     1  0  0.50    -12503.4787   2.0000                                         
     2  0  0.50     -1606.9547   2.0000                                         
     2  1  1.50     -1413.3140   6.0000                                         
     3  0  0.50      -213.4885   2.0000                                         
     3  1  1.50      -152.9538   6.0000                                         
     3  2  2.50       -53.1221  10.0000                                         
     4  0  0.50       -17.2865   2.0000                                         
     4  1  0.50        -6.5110   4.0000                                         
     4  2  2.50        -6.8029   0.0000                                         
     4  3  2.50        -6.8029   0.0000                                         
   Description                                                                  
     l       E           TYP  RCUT    TYP  RCUT                                 
     0    -17.2865377     23  2.100                                             
     0    -15.3094411     23  2.100                                             
     1     -6.5110275     23  2.100                                             
     1     -0.0695192     23  2.100                                             
     2     -6.8029130     23  2.100                                             
     3     -1.3605826      7  2.100                                             
  local pseudopotential read in
  partial core-charges read in
  partial kinetic energy density read in
  atomic valenz-charges read in
  non local Contribution for L=           0  read in
    real space projection operators read in
  non local Contribution for L=           0  read in
    real space projection operators read in
  non local Contribution for L=           1  read in
    real space projection operators read in
  non local Contribution for L=           1  read in
    real space projection operators read in
  non local Contribution for L=           2  read in
    real space projection operators read in
    PAW grid and wavefunctions read in
 
   number of l-projection  operators is LMAX  =           5
   number of lm-projection operators is LMMAX =          13
 
 Optimization of the real space projectors (new method)

 maximal supplied QI-value         = 18.90
 optimisation between [QCUT,QGAM] = [  7.37, 14.74] = [ 15.21, 60.84] Ry 
 Optimized for a Real-space Cutoff    1.74 Angstroem

   l    n(q)    QCUT    max X(q) W(low)/X(q) W(high)/X(q)  e(spline) 
   0      8     7.370    28.265    0.15E-03    0.27E-03    0.15E-06
   0      8     7.370    10.429    0.10E-03    0.21E-03    0.13E-06
   1      7     7.370    13.073    0.40E-03    0.50E-03    0.12E-06
   1      7     7.370     9.625    0.33E-03    0.44E-03    0.11E-06
   2      7     7.370     4.652    0.47E-03    0.31E-03    0.69E-07
 Optimization of the real space projectors (new method)

 maximal supplied QI-value         = 17.95
 optimisation between [QCUT,QGAM] = [  7.36, 14.90] = [ 15.17, 62.17] Ry 
 Optimized for a Real-space Cutoff    1.69 Angstroem

   l    n(q)    QCUT    max X(q) W(low)/X(q) W(high)/X(q)  e(spline) 
   0      7     7.360   133.320    0.61E-04    0.19E-03    0.13E-06
   0      7     7.360   111.601    0.62E-04    0.20E-03    0.13E-06
   1      7     7.360    47.222    0.46E-03    0.85E-03    0.98E-07
   1      7     7.360    33.775    0.45E-03    0.85E-03    0.93E-07
   2      6     7.360     3.720    0.13E-03    0.21E-03    0.11E-06
  PAW_PBE Mg 13Apr2007                  :
 energy of atom  1       EATOM=  -23.0369
 kinetic energy error for atom=    0.0011 (will be added to EATOM!!)
  PAW_PBE Se 06Sep2000                  :
 energy of atom  2       EATOM= -257.1286
 kinetic energy error for atom=    0.0209 (will be added to EATOM!!)
 
 
 POSCAR: Mg32 Se31                               
  positions in direct lattice
  velocities in cartesian coordinates
 exchange correlation table for  LEXCH =        8
   RHO(1)=    0.500       N(1)  =     2000
   RHO(2)=  100.500       N(2)  =     4000
 


--------------------------------------------------------------------------------------------------------


 ion  position               nearest neighbor table
   1  0.011  0.011  0.011-  59 2.61  46 2.62  53 2.62
   2  1.000  1.000  0.500-  52 2.59  58 2.60  47 2.60  33 2.60
   3  0.000  0.499  0.000-  57 2.60  44 2.60  34 2.60  55 2.60
   4  0.000  0.499  0.499-  45 2.60  54 2.60  35 2.61  56 2.62
   5  0.499  0.000  0.000-  42 2.59  49 2.59  63 2.60  36 2.60
   6  0.498  0.001  0.498-  62 2.60  43 2.60  37 2.62  48 2.62
   7  0.498  0.499  0.001-  51 2.60  61 2.60  38 2.61  40 2.62
   8  0.500  0.500  0.500-  39 2.59  50 2.60  60 2.60  41 2.60
   9  0.239  0.239  0.011-  49 2.61  57 2.62  40 2.62
  10  0.250  0.250  0.500-  48 2.59  41 2.60  56 2.60  33 2.60
  11  0.250  0.751  0.001-  42 2.59  59 2.59  51 2.60  34 2.60
  12  0.249  0.752  0.498-  43 2.60  50 2.60  35 2.61  58 2.62
  13  0.751  0.250  0.000-  53 2.60  61 2.60  44 2.60  36 2.60
  14  0.751  0.249  0.499-  45 2.60  60 2.60  37 2.61  52 2.62
  15  0.752  0.752  0.001-  63 2.60  55 2.60  38 2.61  46 2.62
  16  0.750  0.750  0.500-  39 2.59  54 2.60  62 2.60  47 2.60
  17  0.237  0.013  0.238-  58 2.62  48 2.62  42 2.62
  18  0.250  0.000  0.751-  49 2.59  59 2.59  43 2.60  33 2.60
  19  0.250  0.499  0.250-  40 2.60  50 2.60  56 2.60  34 2.60
  20  0.249  0.499  0.752-  51 2.60  41 2.60  35 2.61  57 2.62
  21  0.750  1.000  0.250-  52 2.60  46 2.60  62 2.60  36 2.60
  22  0.752  0.000  0.752-  63 2.60  47 2.60  37 2.62  53 2.62
  23  0.751  0.499  0.249-  54 2.60  60 2.60  38 2.61  44 2.62
  24  0.750  0.500  0.750-  39 2.59  45 2.60  61 2.60  55 2.60
  25  0.010  0.240  0.240-  56 2.61  44 2.61  52 2.62
  26  0.000  0.250  0.751-  53 2.60  45 2.60  57 2.60  33 2.60
  27  0.000  0.751  0.250-  58 2.59  46 2.59  54 2.60  34 2.60
  28  0.001  0.752  0.752-  47 2.60  55 2.60  35 2.61  59 2.62
  29  0.499  0.250  0.250-  48 2.59  40 2.60  60 2.60  36 2.60
  30  0.498  0.250  0.752-  61 2.60  41 2.60  37 2.61  49 2.62
  31  0.498  0.752  0.249-  50 2.60  62 2.60  38 2.61  42 2.62
  32  0.500  0.750  0.750-  39 2.59  63 2.60  51 2.60  43 2.60
  33  0.125  0.125  0.625-  18 2.60  26 2.60   2 2.60  10 2.60
  34  0.125  0.625  0.125-  11 2.60  27 2.60   3 2.60  19 2.60
  35  0.125  0.626  0.625-  28 2.61   4 2.61  20 2.61  12 2.61
  36  0.625  0.125  0.125-   5 2.60  21 2.60  13 2.60  29 2.60
  37  0.625  0.125  0.625-  14 2.61  30 2.61  22 2.62   6 2.62
  38  0.625  0.626  0.125-  15 2.61  23 2.61   7 2.61  31 2.61
  39  0.625  0.625  0.625-  24 2.59  32 2.59  16 2.59   8 2.59
  40  0.371  0.371  0.124-  19 2.60  29 2.60   9 2.62   7 2.62
  41  0.375  0.375  0.625-  10 2.60  30 2.60  20 2.60   8 2.60
  42  0.370  0.880  0.126-  11 2.59   5 2.59  31 2.62  17 2.62
  43  0.375  0.875  0.625-  18 2.60  12 2.60   6 2.60  32 2.60
  44  0.879  0.371  0.126-   3 2.60  13 2.60  25 2.61  23 2.62
  45  0.875  0.375  0.625-  26 2.60  24 2.60   4 2.60  14 2.60
  46  0.879  0.879  0.124-  27 2.59  21 2.60   1 2.62  15 2.62
  47  0.875  0.875  0.625-   2 2.60  28 2.60  22 2.60  16 2.60
  48  0.371  0.125  0.371-  29 2.59  10 2.59   6 2.62  17 2.62
  49  0.371  0.126  0.879-  18 2.59   5 2.59   9 2.61  30 2.62
  50  0.374  0.625  0.375-  19 2.60  31 2.60  12 2.60   8 2.60
  51  0.375  0.626  0.876-  11 2.60  20 2.60   7 2.60  32 2.60
  52  0.879  0.125  0.371-   2 2.59  21 2.60  25 2.62  14 2.62
  53  0.879  0.124  0.879-  26 2.60  13 2.60   1 2.62  22 2.62
  54  0.876  0.625  0.375-  27 2.60   4 2.60  16 2.60  23 2.60
  55  0.875  0.625  0.876-   3 2.60  15 2.60  28 2.60  24 2.60
  56  0.124  0.371  0.371-  19 2.60  10 2.60  25 2.61   4 2.62
  57  0.126  0.371  0.879-   3 2.60  26 2.60   9 2.62  20 2.62
  58  0.126  0.880  0.371-  27 2.59   2 2.60  17 2.62  12 2.62
  59  0.124  0.879  0.879-  11 2.59  18 2.59   1 2.61  28 2.62
  60  0.625  0.375  0.375-  29 2.60   8 2.60  23 2.60  14 2.60
  61  0.625  0.375  0.875-  13 2.60   7 2.60  24 2.60  30 2.60
  62  0.625  0.875  0.375-  21 2.60  31 2.60   6 2.60  16 2.60
  63  0.625  0.875  0.876-   5 2.60  22 2.60  15 2.60  32 2.60
 
  LATTYP: Found a simple cubic cell.
 ALAT       =    11.9836210000
  
  Lattice vectors:
  
 A1 = (  11.9836210000,   0.0000000000,   0.0000000000)
 A2 = (   0.0000000000,  11.9836210000,   0.0000000000)
 A3 = (   0.0000000000,   0.0000000000,  11.9836210000)


Analysis of symmetry for initial positions (statically):
=====================================================================
 Subroutine PRICEL returns:
 Original cell was already a primitive cell.
 

 Routine SETGRP: Setting up the symmetry group for a 
 simple cubic supercell.


 Subroutine GETGRP returns: Found  1 space group operations
 (whereof  1 operations were pure point group operations)
 out of a pool of 48 trial point group operations.


The static configuration has the point symmetry C_1 .


Analysis of symmetry for dynamics (positions and initial velocities):
=====================================================================
 Subroutine PRICEL returns:
 Original cell was already a primitive cell.
 

 Routine SETGRP: Setting up the symmetry group for a 
 simple cubic supercell.


 Subroutine GETGRP returns: Found  1 space group operations
 (whereof  1 operations were pure point group operations)
 out of a pool of 48 trial point group operations.


The dynamic configuration has the point symmetry C_1 .


Analysis of structural, dynamic, and magnetic symmetry:
=====================================================================
 Subroutine PRICEL returns:
 Original cell was already a primitive cell.
 

 Routine SETGRP: Setting up the symmetry group for a 
 simple cubic supercell.


 Subroutine GETGRP returns: Found  1 space group operations
 (whereof  1 operations were pure point group operations)
 out of a pool of 48 trial point group operations.


The magnetic configuration has the point symmetry C_1 .


 Subroutine INISYM returns: Found  1 space group operations
 (whereof  1 operations are pure point group operations),
 and found     1 'primitive' translations

 
 
 KPOINTS: Num irrep kpoints: 1                    

Automatic generation of k-mesh.
Space group operators:
 irot       det(A)        alpha          n_x          n_y          n_z        tau_x        tau_y        tau_z
    1     1.000000     0.000000     1.000000     0.000000     0.000000     0.000000     0.000000     0.000000
 
 Subroutine IBZKPT returns following result:
 ===========================================
 
 Found      1 irreducible k-points:
 
 Following reciprocal coordinates:
            Coordinates               Weight
  0.000000  0.000000  0.000000      1.000000
 
 Following cartesian coordinates:
            Coordinates               Weight
  0.000000  0.000000  0.000000      1.000000
 


--------------------------------------------------------------------------------------------------------




 Dimension of arrays:
   k-points           NKPTS =      1   k-points in BZ     NKDIM =      1   number of bands    NBANDS=    216
   number of dos      NEDOS =    301   number of ions     NIONS =     63
   non local maximal  LDIM  =      5   non local SUM 2l+1 LMDIM =     13
   total plane-waves  NPLWV = 110592
   max r-space proj   IRMAX =   1461   max aug-charges    IRDMAX=   3002
   dimension x,y,z NGX =    48 NGY =   48 NGZ =   48
   dimension x,y,z NGXF=    96 NGYF=   96 NGZF=   96
   support grid    NGXF=    96 NGYF=   96 NGZF=   96
   ions per type =              32  31
   NGX,Y,Z   is equivalent  to a cutoff of   6.66,  6.66,  6.66 a.u.
   NGXF,Y,Z  is equivalent  to a cutoff of  13.32, 13.32, 13.32 a.u.

 SYSTEM =  unknown system                          
 POSCAR =  Mg32 Se31                               

 Startparameter for this run:
   NWRITE =      2    write-flag & timer
   PREC   = normal    normal or accurate (medium, high low for compatibility)
   ISTART =      0    job   : 0-new  1-cont  2-samecut
   ICHARG =      2    charge: 1-file 2-atom 10-const
   ISPIN  =      2    spin polarized calculation?
   LNONCOLLINEAR =      F non collinear calculations
   LSORBIT =      F    spin-orbit coupling
   INIWAV =      1    electr: 0-lowe 1-rand  2-diag
   LASPH  =      T    aspherical Exc in radial PAW
   METAGGA=      F    non-selfconsistent MetaGGA calc.

 Electronic Relaxation 1
   ENCUT  =  211.6 eV  15.55 Ry    3.94 a.u.  14.21 14.21 14.21*2*pi/ulx,y,z
   ENINI  =  211.6     initial cutoff
   ENAUG  =  454.7 eV  augmentation charge cutoff
   NELM   =    100;   NELMIN=  2; NELMDL=  0     # of ELM steps 
   EDIFF  = 0.1E-04   stopping-criterion for ELM
   LREAL  =      T    real-space projection
   NLSPLINE    = F    spline interpolate recip. space projectors
   LCOMPAT=      F    compatible to vasp.4.4
   GGA_COMPAT  = T    GGA compatible to vasp.4.4-vasp.4.6
   LMAXPAW     = -100 max onsite density
   LMAXMIX     =    2 max onsite mixed and CHGCAR
   VOSKOWN=      0    Vosko Wilk Nusair interpolation
   ROPT   =   -0.00050  -0.00050
 Ionic relaxation
   EDIFFG = -.3E-01   stopping-criterion for IOM
   NSW    =     50    number of steps for IOM
   NBLOCK =      1;   KBLOCK =     50    inner block; outer block 
   IBRION =      2    ionic relax: 0-MD 1-quasi-New 2-CG
   NFREE  =      1    steps in history (QN), initial steepest desc. (CG)
   ISIF   =      2    stress and relaxation
   IWAVPR =     11    prediction:  0-non 1-charg 2-wave 3-comb
   ISYM   =      2    0-nonsym 1-usesym 2-fastsym
   LCORR  =      T    Harris-Foulkes like correction to forces

   POTIM  = 0.5000    time-step for ionic-motion
   TEIN   =    0.0    initial temperature
   TEBEG  =    0.0;   TEEND  =   0.0 temperature during run
   SMASS  =  -3.00    Nose mass-parameter (am)
   estimated Nose-frequenzy (Omega)   =  0.10E-29 period in steps =****** mass=  -0.328E-26a.u.
   SCALEE = 1.0000    scale energy and forces
   NPACO  =    256;   APACO  = 16.0  distance and # of slots for P.C.
   PSTRESS=    0.0 pullay stress

  Mass of Ions in am
   POMASS =  24.30 78.96
  Ionic Valenz
   ZVAL   =   2.00  6.00
  Atomic Wigner-Seitz radii
   RWIGS  =  -1.00 -1.00
  virtual crystal weights 
   VCA    =   1.00  1.00
   NELECT =     250.0000    total number of electrons
   NUPDOWN=      -1.0000    fix difference up-down

 DOS related values:
   EMIN   =  10.00;   EMAX   =-10.00  energy-range for DOS
   EFERMI =   0.00
   ISMEAR =     0;   SIGMA  =   0.10  broadening in eV -4-tet -1-fermi 0-gaus

 Electronic relaxation 2 (details)
   IALGO  =     38    algorithm
   LDIAG  =      T    sub-space diagonalisation (order eigenvalues)
   LSUBROT=      F    optimize rotation matrix (better conditioning)
   TURBO    =      0    0=normal 1=particle mesh
   IRESTART =      0    0=no restart 2=restart with 2 vectors
   NREBOOT  =      0    no. of reboots
   NMIN     =      0    reboot dimension
   EREF     =   0.00    reference energy to select bands
   IMIX   =      4    mixing-type and parameters
     AMIX     =   0.40;   BMIX     =  1.00
     AMIX_MAG =   1.60;   BMIX_MAG =  1.00
     AMIN     =   0.10
     WC   =   100.;   INIMIX=   1;  MIXPRE=   1;  MAXMIX= -45

 Intra band minimization:
   WEIMIN = 0.0010     energy-eigenvalue tresh-hold
   EBREAK =  0.12E-07  absolut break condition
   DEPER  =   0.30     relativ break condition  

   TIME   =   0.40     timestep for ELM

  volume/ion in A,a.u.               =      27.32       184.34
  Fermi-wavevector in a.u.,A,eV,Ry     =   0.860598  1.626294 10.076857  0.740628
  Thomas-Fermi vector in A             =   1.978126
 
 Write flags
   LWAVE        =      F    write WAVECAR
   LDOWNSAMPLE  =      F    k-point downsampling of WAVECAR
   LCHARG       =      F    write CHGCAR
   LVTOT        =      F    write LOCPOT, total local potential
   LVHAR        =      F    write LOCPOT, Hartree potential only
   LELF         =      F    write electronic localiz. function (ELF)
   LORBIT       =     10    0 simple, 1 ext, 2 COOP (PROOUT), +10 PAW based schemes


 Dipole corrections
   LMONO  =      F    monopole corrections only (constant potential shift)
   LDIPOL =      F    correct potential (dipole corrections)
   IDIPOL =      0    1-x, 2-y, 3-z, 4-all directions 
   EPSILON=  1.0000000 bulk dielectric constant

 Exchange correlation treatment:
   GGA     =    --    GGA type
   LEXCH   =     8    internal setting for exchange type
   VOSKOWN=      0    Vosko Wilk Nusair interpolation
   LHFCALC =     F    Hartree Fock is set to
   LHFONE  =     F    Hartree Fock one center treatment
   AEXX    =    0.0000 exact exchange contribution

 Linear response parameters
   LEPSILON=     F    determine dielectric tensor
   LRPA    =     F    only Hartree local field effects (RPA)
   LNABLA  =     F    use nabla operator in PAW spheres
   LVEL    =     F    velocity operator in full k-point grid
   LINTERFAST=   F  fast interpolation
   KINTER  =     0    interpolate to denser k-point grid
   CSHIFT  =0.1000    complex shift for real part using Kramers Kronig
   OMEGAMAX=  -1.0    maximum frequency
   DEG_THRESHOLD= 0.2000000E-02 threshold for treating states as degnerate
   RTIME   =   -0.100 relaxation time in fs
  (WPLASMAI=    0.000 imaginary part of plasma frequency in eV, 0.658/RTIME)
   DFIELD  = 0.0000000 0.0000000 0.0000000 field for delta impulse in time
 
 Orbital magnetization related:
   ORBITALMAG=     F  switch on orbital magnetization
   LCHIMAG   =     F  perturbation theory with respect to B field
   DQ        =  0.001000  dq finite difference perturbation B field
   LLRAUG    =     F  two centre corrections for induced B field



--------------------------------------------------------------------------------------------------------


 conjugate gradient relaxation of ions
 charge density and potential will be updated during run
 spin polarized calculation
 Variant of blocked Davidson
 Davidson routine will perform the subspace rotation
 perform sub-space diagonalisation
    after iterative eigenvector-optimisation
 modified Broyden-mixing scheme, WC =      100.0
 initial mixing is a Kerker type mixing with AMIX =  0.4000 and BMIX =      1.0000
 Hartree-type preconditioning will be used
 using additional bands           91
 real space projection scheme for non local part
 use partial core corrections
 calculate Harris-corrections to forces 
   (improved forces if not selfconsistent)
 use gradient corrections 
 use of overlap-Matrix (Vanderbilt PP)
 Gauss-broadening in eV      SIGMA  =   0.10


--------------------------------------------------------------------------------------------------------


  energy-cutoff  :      211.56
  volume of cell :     1720.93
      direct lattice vectors                 reciprocal lattice vectors
    11.983621000  0.000000000  0.000000000     0.083447232  0.000000000  0.000000000
     0.000000000 11.983621000  0.000000000     0.000000000  0.083447232  0.000000000
     0.000000000  0.000000000 11.983621000     0.000000000  0.000000000  0.083447232

  length of vectors
    11.983621000 11.983621000 11.983621000     0.083447232  0.083447232  0.083447232


 
 k-points in units of 2pi/SCALE and weight: Num irrep kpoints: 1                    
   0.00000000  0.00000000  0.00000000       1.000
 
 k-points in reciprocal lattice and weights: Num irrep kpoints: 1                    
   0.00000000  0.00000000  0.00000000       1.000
 
 position of ions in fractional coordinates (direct lattice) 
   0.01131082  0.01108532  0.01133274
   0.99993108  0.99998374  0.49963315
   0.00029268  0.49941767  0.00039642
   0.00048724  0.49900626  0.49885472
   0.49924926  0.00010194  0.00025618
   0.49801852  0.00072114  0.49824685
   0.49848631  0.49893331  0.00064981
   0.49997638  0.50034960  0.50005794
   0.23948658  0.23915609  0.01087383
   0.25031518  0.25003481  0.49964062
   0.24980526  0.75126804  0.00058773
   0.24940741  0.75210177  0.49821550
   0.75051567  0.24990961  0.00001929
   0.75137765  0.24948337  0.49899349
   0.75159406  0.75177045  0.00060873
   0.74993407  0.74991494  0.50002180
   0.23742039  0.01269900  0.23793586
   0.24989662  0.00012821  0.75072113
   0.24982545  0.49946984  0.24986553
   0.24936354  0.49914940  0.75202602
   0.75043297  0.99998250  0.25003356
   0.75163362  0.00039553  0.75217844
   0.75142971  0.49932509  0.24929149
   0.74999190  0.50011706  0.74999626
   0.01018888  0.23969674  0.24009999
   0.00006780  0.24998867  0.75079191
   0.00043482  0.75122398  0.24995690
   0.00073106  0.75165585  0.75194838
   0.49932871  0.25001832  0.25034240
   0.49835760  0.24956255  0.75184675
   0.49777490  0.75208057  0.24949006
   0.49999767  0.75002594  0.75011218
   0.12501294  0.12507852  0.62516825
   0.12502107  0.62535855  0.12513094
   0.12513491  0.62557856  0.62509931
   0.62486694  0.12508793  0.12513598
   0.62480852  0.12474668  0.62539431
   0.62468656  0.62573577  0.12505248
   0.62500682  0.62513239  0.62517750
   0.37114706  0.37114086  0.12449329
   0.37469007  0.37522305  0.62549606
   0.37045803  0.87979779  0.12595152
   0.37466149  0.87538029  0.62508486
   0.87885821  0.37114772  0.12573687
   0.87541617  0.37489534  0.62520265
   0.87915781  0.87924260  0.12440672
   0.87519657  0.87509041  0.62542709
   0.37063261  0.12453518  0.37076531
   0.37095142  0.12556820  0.87911894
   0.37446556  0.62524605  0.37471806
   0.37451422  0.62557567  0.87580061
   0.87859628  0.12540493  0.37142580
   0.87934362  0.12438804  0.87940908
   0.87564481  0.62546220  0.37460702
   0.87534102  0.62502911  0.87552187
   0.12437822  0.37128449  0.37142311
   0.12570713  0.37100330  0.87926096
   0.12580751  0.87980604  0.37069364
   0.12442202  0.87927282  0.87928703
   0.62525589  0.37508655  0.37479886
   0.62490312  0.37503098  0.87543574
   0.62468931  0.87525168  0.37484989
   0.62490929  0.87527196  0.87555658
 
 position of ions in cartesian coordinates  (Angst):
   0.13554458  0.13284227  0.13580732
  11.98279514 11.98342610  5.98741429
   0.00350736  5.98483205  0.00475053
   0.00583893  5.97990193  5.97808588
   5.98281390  0.00122163  0.00306995
   5.96806524  0.00864187  5.97080143
   5.97367105  5.97902771  0.00778706
   5.99152742  5.99599994  5.99250487
   2.86991637  2.86595598  0.13030791
   2.99968226  2.99632239  5.98750381
   2.99357157  9.00291144  0.00704319
   2.98880382  9.01290257  5.97042567
   8.99389536  2.99482199  0.00023117
   9.00422497  2.98971416  5.97974888
   9.00681839  9.00893214  0.00729479
   8.98692572  8.98669642  5.99207180
   2.84515596  0.15218003  2.85133313
   2.99466638  0.00153648  8.99635755
   2.99381349  5.98545721  2.99429387
   2.98827810  5.98161726  9.01199480
   8.99290427 11.98341130  2.99630738
   9.00729246  0.00473993  9.01382134
   9.00484885  5.98372268  2.98741476
   8.98761870  5.99321335  8.98767096
   0.12209970  2.87243491  2.87726732
   0.00081244  2.99576947  8.99720566
   0.00521077  9.00238348  2.99538875
   0.00876079  9.00755878  9.01106444
   5.98376598  2.99612482  3.00000841
   5.97212858  2.99066302  9.00984647
   5.96514574  9.01264854  2.98979428
   5.99178258  8.98802662  8.98906002
   1.49810765  1.49889352  7.49177931
   1.49820517  7.49405988  1.49952180
   1.49956928  7.49669642  7.49095324
   7.48816862  1.49900640  1.49958220
   7.48746851  1.49491691  7.49448845
   7.48600696  7.49858026  1.49858149
   7.48984485  7.49134967  7.49189023
   4.44768570  4.44761134  1.49188036
   4.49014384  4.49653087  7.49570771
   4.43942866 10.54316328  1.50935531
   4.48980131 10.49022564  7.49078000
  10.53190373  4.44769363  1.50678304
  10.49065554  4.49260366  7.49219162
  10.53549396 10.53651008  1.49084300
  10.48802404 10.48675182  7.49488124
   4.44152067  1.49238234  4.44311099
   4.44534119  1.50476167 10.53502813
   4.48745332  7.49271171  4.49047917
   4.48803649  7.49666175 10.49526255
  10.52876478  1.50280516  4.45102607
  10.53772073  1.49061917 10.53850508
  10.49339548  7.49530193  4.48914858
  10.48975507  7.49011202 10.49192231
   1.49050146  4.44933256  4.45099382
   1.50642660  4.44596297 10.53673005
   1.50762947 10.54326219  4.44225206
   1.49102628 10.53687229 10.53704246
   7.49282961  4.49489508  4.49144748
   7.48860210  4.49422913 10.49089014
   7.48603998 10.48868440  4.49205903
   7.48867605 10.48892743 10.49233821
 


--------------------------------------------------------------------------------------------------------


 use serial FFT for orbitals x direction half grid
 k-point  1 :   0.0000 0.0000 0.0000  plane waves:    5991

 maximum and minimum number of plane-waves per node :      5991     5991

 maximum number of plane-waves:      5991
 maximum index in each direction: 
   IXMAX=   14   IYMAX=   14   IZMAX=   14
   IXMIN=    0   IYMIN=  -14   IZMIN=  -14


 serial   3D FFT for wavefunctions
 parallel 3D FFT for charge:
    minimum data exchange during FFTs selected (reduces bandwidth)


 total amount of memory used by VASP MPI-rank0    53725. kBytes
=======================================================================

   base      :      30000. kBytes
   nonlr-proj:       9418. kBytes
   fftplans  :       1394. kBytes
   grid      :      11169. kBytes
   one-center:        511. kBytes
   wavefun   :       1233. kBytes
 
     INWAV:  cpu time    0.0000: real time    0.0004
 Broyden mixing: mesh for mixing (old mesh)
   NGX = 29   NGY = 29   NGZ = 29
  (NGX  = 96   NGY  = 96   NGZ  = 96)
  gives a total of  24389 points

 initial charge density was supplied:
 charge density of overlapping atoms calculated
 number of electron     250.0000000 magnetization      63.0000000
 keeping initial charge density in first step


--------------------------------------------------------------------------------------------------------


 Maximum index for non-local projection operator         1377
 Maximum index for augmentation-charges          241 (set IRDMAX)


--------------------------------------------------------------------------------------------------------


 First call to EWALD:  gamma=   0.148
 Maximum number of real-space cells 3x 3x 3
 Maximum number of reciprocal cells 3x 3x 3

    FEWALD:  cpu time    0.0040: real time    0.0025


--------------------------------------- Iteration      1(   1)  ---------------------------------------


    POTLOK:  cpu time    0.0440: real time    0.0468
    SETDIJ:  cpu time    0.7800: real time    0.7887
     EDDAV:  cpu time    0.5160: real time    0.5194
       DOS:  cpu time    0.0000: real time    0.0009
    --------------------------------------------
      LOOP:  cpu time    1.3400: real time    1.3558

 eigenvalue-minimisations  :   864
 total energy-change (2. order) : 0.1028879E+04  (-0.6121610E+04)
 number of electron     250.0000000 magnetization      63.0000000
 augmentation part      250.0000000 magnetization      63.0000000

 Free energy of the ion-electron system (eV)
  ---------------------------------------------------
  alpha Z        PSCENC =       366.34210323
  Ewald energy   TEWEN  =     -7473.94793482
  -Hartree energ DENC   =     -1299.73510921
  -exchange      EXHF   =         0.00000000
  -V(xc)+E(xc)   XCENC  =     -1583.12084108
  PAW double counting   =      8602.75915088    -6515.79576622
  entropy T*S    EENTRO =        -0.09239672
  eigenvalues    EBANDS =       224.98751164
  atomic energy  EATOM  =      8707.48247695
  Solvation  Ediel_sol  =         0.00000000
  ---------------------------------------------------
  free energy    TOTEN  =      1028.87919464 eV

  energy without entropy =     1028.97159136  energy(sigma->0) =     1028.92539300


--------------------------------------------------------------------------------------------------------




--------------------------------------- Iteration      1(   2)  ---------------------------------------


     EDDAV:  cpu time    0.6760: real time    0.6752
       DOS:  cpu time    0.0000: real time    0.0006
    --------------------------------------------
      LOOP:  cpu time    0.6760: real time    0.6758

 eigenvalue-minimisations  :  1224
 total energy-change (2. order) :-0.1145534E+04  (-0.1082749E+04)
 number of electron     250.0000000 magnetization      63.0000000
 augmentation part      250.0000000 magnetization      63.0000000

 Free energy of the ion-electron system (eV)
  ---------------------------------------------------
  alpha Z        PSCENC =       366.34210323
  Ewald energy   TEWEN  =     -7473.94793482
  -Hartree energ DENC   =     -1299.73510921
  -exchange      EXHF   =         0.00000000
  -V(xc)+E(xc)   XCENC  =     -1583.12084108
  PAW double counting   =      8602.75915088    -6515.79576622
  entropy T*S    EENTRO =        -0.00003257
  eigenvalues    EBANDS =      -920.63876763
  atomic energy  EATOM  =      8707.48247695
  Solvation  Ediel_sol  =         0.00000000
  ---------------------------------------------------
  free energy    TOTEN  =      -116.65472048 eV

  energy without entropy =     -116.65468791  energy(sigma->0) =     -116.65470420


--------------------------------------------------------------------------------------------------------




--------------------------------------- Iteration      1(   3)  ---------------------------------------


     EDDAV:  cpu time    0.6440: real time    0.6476
       DOS:  cpu time    0.0000: real time    0.0008
    --------------------------------------------
      LOOP:  cpu time    0.6440: real time    0.6484

 eigenvalue-minimisations  :  1152
 total energy-change (2. order) :-0.1112630E+03  (-0.1106939E+03)
 number of electron     250.0000000 magnetization      63.0000000
 augmentation part      250.0000000 magnetization      63.0000000

 Free energy of the ion-electron system (eV)
  ---------------------------------------------------
  alpha Z        PSCENC =       366.34210323
  Ewald energy   TEWEN  =     -7473.94793482
  -Hartree energ DENC   =     -1299.73510921
  -exchange      EXHF   =         0.00000000
  -V(xc)+E(xc)   XCENC  =     -1583.12084108
  PAW double counting   =      8602.75915088    -6515.79576622
  entropy T*S    EENTRO =        -0.01520680
  eigenvalues    EBANDS =     -1031.88655409
  atomic energy  EATOM  =      8707.48247695
  Solvation  Ediel_sol  =         0.00000000
  ---------------------------------------------------
  free energy    TOTEN  =      -227.91768117 eV

  energy without entropy =     -227.90247437  energy(sigma->0) =     -227.91007777


--------------------------------------------------------------------------------------------------------




--------------------------------------- Iteration      1(   4)  ---------------------------------------


     EDDAV:  cpu time    0.6240: real time    0.6267
       DOS:  cpu time    0.0000: real time    0.0008
    --------------------------------------------
      LOOP:  cpu time    0.6240: real time    0.6274

 eigenvalue-minimisations  :  1116
 total energy-change (2. order) :-0.1599075E+01  (-0.1597753E+01)
 number of electron     250.0000000 magnetization      63.0000000
 augmentation part      250.0000000 magnetization      63.0000000

 Free energy of the ion-electron system (eV)
  ---------------------------------------------------
  alpha Z        PSCENC =       366.34210323
  Ewald energy   TEWEN  =     -7473.94793482
  -Hartree energ DENC   =     -1299.73510921
  -exchange      EXHF   =         0.00000000
  -V(xc)+E(xc)   XCENC  =     -1583.12084108
  PAW double counting   =      8602.75915088    -6515.79576622
  entropy T*S    EENTRO =        -0.01660303
  eigenvalues    EBANDS =     -1033.48423307
  atomic energy  EATOM  =      8707.48247695
  Solvation  Ediel_sol  =         0.00000000
  ---------------------------------------------------
  free energy    TOTEN  =      -229.51675638 eV

  energy without entropy =     -229.50015335  energy(sigma->0) =     -229.50845487


--------------------------------------------------------------------------------------------------------




--------------------------------------- Iteration      1(   5)  ---------------------------------------


     EDDAV:  cpu time    0.6000: real time    0.6048
       DOS:  cpu time    0.0000: real time    0.0008
    CHARGE:  cpu time    0.0320: real time    0.0318
    MIXING:  cpu time    0.0000: real time    0.0011
    --------------------------------------------
      LOOP:  cpu time    0.6320: real time    0.6385

 eigenvalue-minimisations  :  1080
 total energy-change (2. order) :-0.1351461E-01  (-0.1351332E-01)
 number of electron     250.0000365 magnetization      41.3054265
 augmentation part      -36.4323388 magnetization      41.3796869

 Broyden mixing:
  rms(total) = 0.26649E+01    rms(broyden)= 0.26647E+01
  rms(prec ) = 0.30790E+01
  weight for this iteration     100.00

 Free energy of the ion-electron system (eV)
  ---------------------------------------------------
  alpha Z        PSCENC =       366.34210323
  Ewald energy   TEWEN  =     -7473.94793482
  -Hartree energ DENC   =     -1299.73510921
  -exchange      EXHF   =         0.00000000
  -V(xc)+E(xc)   XCENC  =     -1583.12084108
  PAW double counting   =      8602.75915088    -6515.79576622
  entropy T*S    EENTRO =        -0.01663864
  eigenvalues    EBANDS =     -1033.49771207
  atomic energy  EATOM  =      8707.48247695
  Solvation  Ediel_sol  =         0.00000000
  ---------------------------------------------------
  free energy    TOTEN  =      -229.53027099 eV

  energy without entropy =     -229.51363235  energy(sigma->0) =     -229.52195167


--------------------------------------------------------------------------------------------------------




--------------------------------------- Iteration      1(   6)  ---------------------------------------


    POTLOK:  cpu time    0.0400: real time    0.0406
    SETDIJ:  cpu time    0.8040: real time    0.8052
     EDDAV:  cpu time    0.5040: real time    0.5068
       DOS:  cpu time    0.0040: real time    0.0007
    CHARGE:  cpu time    0.0280: real time    0.0295
    MIXING:  cpu time    0.0000: real time    0.0010
    --------------------------------------------
      LOOP:  cpu time    1.3800: real time    1.3838

 eigenvalue-minimisations  :   864
 total energy-change (2. order) : 0.2118850E+02  (-0.4527816E+01)
 number of electron     250.0000353 magnetization      21.2744287
 augmentation part      -35.1294313 magnetization      22.0671410

 Broyden mixing:
  rms(total) = 0.15435E+01    rms(broyden)= 0.15434E+01
  rms(prec ) = 0.17070E+01
  weight for this iteration     100.00

 eigenvalues of (default mixing * dielectric matrix)
  average eigenvalue GAMMA=   1.0258
  1.0258

 Free energy of the ion-electron system (eV)
  ---------------------------------------------------
  alpha Z        PSCENC =       366.34210323
  Ewald energy   TEWEN  =     -7473.94793482
  -Hartree energ DENC   =     -1431.74883027
  -exchange      EXHF   =         0.00000000
  -V(xc)+E(xc)   XCENC  =     -1567.22472034
  PAW double counting   =     10587.83324659    -8504.91092912
  entropy T*S    EENTRO =        -0.00001904
  eigenvalues    EBANDS =      -892.16716786
  atomic energy  EATOM  =      8707.48247695
  Solvation  Ediel_sol  =         0.00000000
  ---------------------------------------------------
  free energy    TOTEN  =      -208.34177468 eV

  energy without entropy =     -208.34175564  energy(sigma->0) =     -208.34176516


--------------------------------------------------------------------------------------------------------




--------------------------------------- Iteration      1(   7)  ---------------------------------------


    POTLOK:  cpu time    0.0400: real time    0.0384
    SETDIJ:  cpu time    0.8080: real time    0.8081
     EDDAV:  cpu time    0.5680: real time    0.5724
       DOS:  cpu time    0.0000: real time    0.0005
    CHARGE:  cpu time    0.0320: real time    0.0303
    MIXING:  cpu time    0.0000: real time    0.0011
    --------------------------------------------
      LOOP:  cpu time    1.4480: real time    1.4509

 eigenvalue-minimisations  :  1008
 total energy-change (2. order) :-0.1880234E+02  (-0.2294722E+01)
 number of electron     250.0000343 magnetization      11.5630445
 augmentation part      -34.1049764 magnetization      12.0243779

 Broyden mixing:
  rms(total) = 0.91138E+00    rms(broyden)= 0.91133E+00
  rms(prec ) = 0.93786E+00
  weight for this iteration     100.00

 eigenvalues of (default mixing * dielectric matrix)
  average eigenvalue GAMMA=   1.0593
  1.3436  0.7750

 Free energy of the ion-electron system (eV)
  ---------------------------------------------------
  alpha Z        PSCENC =       366.34210323
  Ewald energy   TEWEN  =     -7473.94793482
  -Hartree energ DENC   =     -1516.82889261
  -exchange      EXHF   =         0.00000000
  -V(xc)+E(xc)   XCENC  =     -1564.81881151
  PAW double counting   =     12761.75364893   -10681.35837884
  entropy T*S    EENTRO =        -0.00000000
  eigenvalues    EBANDS =      -825.76832488
  atomic energy  EATOM  =      8707.48247695
  Solvation  Ediel_sol  =         0.00000000
  ---------------------------------------------------
  free energy    TOTEN  =      -227.14411354 eV

  energy without entropy =     -227.14411354  energy(sigma->0) =     -227.14411354


--------------------------------------------------------------------------------------------------------




--------------------------------------- Iteration      1(   8)  ---------------------------------------


    POTLOK:  cpu time    0.0400: real time    0.0463
    SETDIJ:  cpu time    0.8040: real time    0.8041
     EDDAV:  cpu time    0.5280: real time    0.5321
       DOS:  cpu time    0.0040: real time    0.0005
    CHARGE:  cpu time    0.0280: real time    0.0293
    MIXING:  cpu time    0.0000: real time    0.0012
    --------------------------------------------
      LOOP:  cpu time    1.4040: real time    1.4134

 eigenvalue-minimisations  :   900
 total energy-change (2. order) :-0.4384408E+01  (-0.5234274E+00)
 number of electron     250.0000342 magnetization       3.2287600
 augmentation part      -34.0018046 magnetization       3.4840961

 Broyden mixing:
  rms(total) = 0.51879E+00    rms(broyden)= 0.51878E+00
  rms(prec ) = 0.53717E+00
  weight for this iteration     100.00

 eigenvalues of (default mixing * dielectric matrix)
  average eigenvalue GAMMA=   1.4248
  2.5724  1.0991  0.6028

 Free energy of the ion-electron system (eV)
  ---------------------------------------------------
  alpha Z        PSCENC =       366.34210323
  Ewald energy   TEWEN  =     -7473.94793482
  -Hartree energ DENC   =     -1525.45618627
  -exchange      EXHF   =         0.00000000
  -V(xc)+E(xc)   XCENC  =     -1565.11164352
  PAW double counting   =     13817.79691458   -11737.66349008
  entropy T*S    EENTRO =        -0.00000000
  eigenvalues    EBANDS =      -820.97076141
  atomic energy  EATOM  =      8707.48247695
  Solvation  Ediel_sol  =         0.00000000
  ---------------------------------------------------
  free energy    TOTEN  =      -231.52852133 eV

  energy without entropy =     -231.52852133  energy(sigma->0) =     -231.52852133


--------------------------------------------------------------------------------------------------------




--------------------------------------- Iteration      1(   9)  ---------------------------------------


    POTLOK:  cpu time    0.0400: real time    0.0385
    SETDIJ:  cpu time    0.8040: real time    0.8055
     EDDAV:  cpu time    0.5840: real time    0.5857
       DOS:  cpu time    0.0040: real time    0.0005
    CHARGE:  cpu time    0.0280: real time    0.0293
    MIXING:  cpu time    0.0000: real time    0.0012
    --------------------------------------------
      LOOP:  cpu time    1.4600: real time    1.4607

 eigenvalue-minimisations  :  1044
 total energy-change (2. order) :-0.8592440E+00  (-0.1024407E+00)
 number of electron     250.0000343 magnetization       1.1227967
 augmentation part      -34.1180196 magnetization       1.2059492

 Broyden mixing:
  rms(total) = 0.10618E+00    rms(broyden)= 0.10617E+00
  rms(prec ) = 0.11315E+00
  weight for this iteration     100.00

 eigenvalues of (default mixing * dielectric matrix)
  average eigenvalue GAMMA=   1.3340
  2.6718  1.0880  0.9576  0.6185

 Free energy of the ion-electron system (eV)
  ---------------------------------------------------
  alpha Z        PSCENC =       366.34210323
  Ewald energy   TEWEN  =     -7473.94793482
  -Hartree energ DENC   =     -1523.28819860
  -exchange      EXHF   =         0.00000000
  -V(xc)+E(xc)   XCENC  =     -1564.08899894
  PAW double counting   =     14733.12493469   -12652.94208314
  entropy T*S    EENTRO =        -0.00000000
  eigenvalues    EBANDS =      -825.07006473
  atomic energy  EATOM  =      8707.48247695
  Solvation  Ediel_sol  =         0.00000000
  ---------------------------------------------------
  free energy    TOTEN  =      -232.38776535 eV

  energy without entropy =     -232.38776535  energy(sigma->0) =     -232.38776535


--------------------------------------------------------------------------------------------------------




--------------------------------------- Iteration      1(  10)  ---------------------------------------


    POTLOK:  cpu time    0.0400: real time    0.0383
    SETDIJ:  cpu time    0.8040: real time    0.8072
     EDDAV:  cpu time    0.6200: real time    0.6200
       DOS:  cpu time    0.0000: real time    0.0005
    CHARGE:  cpu time    0.0320: real time    0.0296
    MIXING:  cpu time    0.0000: real time    0.0013
    --------------------------------------------
      LOOP:  cpu time    1.4960: real time    1.4970

 eigenvalue-minimisations  :  1116
 total energy-change (2. order) :-0.8497506E-01  (-0.1176200E-01)
 number of electron     250.0000343 magnetization       0.9225051
 augmentation part      -34.1361256 magnetization       0.9469009

 Broyden mixing:
  rms(total) = 0.70927E-01    rms(broyden)= 0.70919E-01
  rms(prec ) = 0.73110E-01
  weight for this iteration     100.00

 eigenvalues of (default mixing * dielectric matrix)
  average eigenvalue GAMMA=   1.2116
  2.5962  1.0459  1.0459  0.7890  0.5811

 Free energy of the ion-electron system (eV)
  ---------------------------------------------------
  alpha Z        PSCENC =       366.34210323
  Ewald energy   TEWEN  =     -7473.94793482
  -Hartree energ DENC   =     -1525.06372913
  -exchange      EXHF   =         0.00000000
  -V(xc)+E(xc)   XCENC  =     -1563.55657406
  PAW double counting   =     14848.56022014   -12768.36960087
  entropy T*S    EENTRO =        -0.00000000
  eigenvalues    EBANDS =      -823.91970186
  atomic energy  EATOM  =      8707.48247695
  Solvation  Ediel_sol  =         0.00000000
  ---------------------------------------------------
  free energy    TOTEN  =      -232.47274042 eV

  energy without entropy =     -232.47274042  energy(sigma->0) =     -232.47274042


--------------------------------------------------------------------------------------------------------




--------------------------------------- Iteration      1(  11)  ---------------------------------------


    POTLOK:  cpu time    0.0400: real time    0.0383
    SETDIJ:  cpu time    0.8040: real time    0.8067
     EDDAV:  cpu time    0.6040: real time    0.6041
       DOS:  cpu time    0.0000: real time    0.0005
    CHARGE:  cpu time    0.0320: real time    0.0294
    MIXING:  cpu time    0.0000: real time    0.0014
    --------------------------------------------
      LOOP:  cpu time    1.4800: real time    1.4803

 eigenvalue-minimisations  :  1080
 total energy-change (2. order) :-0.8504299E-02  (-0.4943380E-03)
 number of electron     250.0000343 magnetization       0.2923412
 augmentation part      -34.1350366 magnetization       0.3117876

 Broyden mixing:
  rms(total) = 0.44135E-01    rms(broyden)= 0.44134E-01
  rms(prec ) = 0.46260E-01
  weight for this iteration     100.00

 eigenvalues of (default mixing * dielectric matrix)
  average eigenvalue GAMMA=   1.2676
  2.5387  1.3379  1.2216  1.2216  0.5987  0.6871

 Free energy of the ion-electron system (eV)
  ---------------------------------------------------
  alpha Z        PSCENC =       366.34210323
  Ewald energy   TEWEN  =     -7473.94793482
  -Hartree energ DENC   =     -1525.36977259
  -exchange      EXHF   =         0.00000000
  -V(xc)+E(xc)   XCENC  =     -1563.55153558
  PAW double counting   =     14765.32025795   -12685.10220612
  entropy T*S    EENTRO =        -0.00000000
  eigenvalues    EBANDS =      -823.65463373
  atomic energy  EATOM  =      8707.48247695
  Solvation  Ediel_sol  =         0.00000000
  ---------------------------------------------------
  free energy    TOTEN  =      -232.48124471 eV

  energy without entropy =     -232.48124471  energy(sigma->0) =     -232.48124471


--------------------------------------------------------------------------------------------------------




--------------------------------------- Iteration      1(  12)  ---------------------------------------


    POTLOK:  cpu time    0.0400: real time    0.0383
    SETDIJ:  cpu time    0.8040: real time    0.8070
     EDDAV:  cpu time    0.5560: real time    0.5566
       DOS:  cpu time    0.0040: real time    0.0005
    CHARGE:  cpu time    0.0280: real time    0.0295
    MIXING:  cpu time    0.0000: real time    0.0014
    --------------------------------------------
      LOOP:  cpu time    1.4320: real time    1.4333

 eigenvalue-minimisations  :   972
 total energy-change (2. order) :-0.1054173E-01  (-0.7602628E-03)
 number of electron     250.0000343 magnetization      -0.0057776
 augmentation part      -34.1382383 magnetization       0.0014075

 Broyden mixing:
  rms(total) = 0.13981E-01    rms(broyden)= 0.13980E-01
  rms(prec ) = 0.15009E-01
  weight for this iteration     100.00

 eigenvalues of (default mixing * dielectric matrix)
  average eigenvalue GAMMA=   1.4014
  2.8171  2.5840  1.1423  1.1423  0.8629  0.6306  0.6306

 Free energy of the ion-electron system (eV)
  ---------------------------------------------------
  alpha Z        PSCENC =       366.34210323
  Ewald energy   TEWEN  =     -7473.94793482
  -Hartree energ DENC   =     -1525.77334212
  -exchange      EXHF   =         0.00000000
  -V(xc)+E(xc)   XCENC  =     -1563.47541695
  PAW double counting   =     14662.07728467   -12581.80830368
  entropy T*S    EENTRO =        -0.00000000
  eigenvalues    EBANDS =      -823.38865373
  atomic energy  EATOM  =      8707.48247695
  Solvation  Ediel_sol  =         0.00000000
  ---------------------------------------------------
  free energy    TOTEN  =      -232.49178644 eV

  energy without entropy =     -232.49178644  energy(sigma->0) =     -232.49178644


--------------------------------------------------------------------------------------------------------




--------------------------------------- Iteration      1(  13)  ---------------------------------------


    POTLOK:  cpu time    0.0400: real time    0.0381
    SETDIJ:  cpu time    0.8080: real time    0.8202
     EDDAV:  cpu time    0.6080: real time    0.6094
       DOS:  cpu time    0.0000: real time    0.0005
    CHARGE:  cpu time    0.0320: real time    0.0305
    MIXING:  cpu time    0.0000: real time    0.0017
    --------------------------------------------
      LOOP:  cpu time    1.4880: real time    1.5003

 eigenvalue-minimisations  :  1080
 total energy-change (2. order) :-0.1491136E-02  (-0.1713767E-03)
 number of electron     250.0000343 magnetization      -0.0084033
 augmentation part      -34.1384497 magnetization      -0.0080870

 Broyden mixing:
  rms(total) = 0.36771E-02    rms(broyden)= 0.36757E-02
  rms(prec ) = 0.42117E-02
  weight for this iteration     100.00

 eigenvalues of (default mixing * dielectric matrix)
  average eigenvalue GAMMA=   1.3327
  2.8911  2.5053  1.2446  1.0034  1.0034  0.7691  0.6098  0.6351

 Free energy of the ion-electron system (eV)
  ---------------------------------------------------
  alpha Z        PSCENC =       366.34210323
  Ewald energy   TEWEN  =     -7473.94793482
  -Hartree energ DENC   =     -1526.18500445
  -exchange      EXHF   =         0.00000000
  -V(xc)+E(xc)   XCENC  =     -1563.40806764
  PAW double counting   =     14644.45543292   -12564.17690727
  entropy T*S    EENTRO =        -0.00000000
  eigenvalues    EBANDS =      -823.05537650
  atomic energy  EATOM  =      8707.48247695
  Solvation  Ediel_sol  =         0.00000000
  ---------------------------------------------------
  free energy    TOTEN  =      -232.49327758 eV

  energy without entropy =     -232.49327758  energy(sigma->0) =     -232.49327758


--------------------------------------------------------------------------------------------------------




--------------------------------------- Iteration      1(  14)  ---------------------------------------


    POTLOK:  cpu time    0.0400: real time    0.0409
    SETDIJ:  cpu time    0.8000: real time    0.8075
     EDDAV:  cpu time    0.6480: real time    0.6458
       DOS:  cpu time    0.0000: real time    0.0005
    CHARGE:  cpu time    0.0280: real time    0.0294
    MIXING:  cpu time    0.0000: real time    0.0016
    --------------------------------------------
      LOOP:  cpu time    1.5160: real time    1.5256

 eigenvalue-minimisations  :  1152
 total energy-change (2. order) :-0.6698459E-04  (-0.6372061E-05)
 number of electron     250.0000343 magnetization      -0.0053496
 augmentation part      -34.1379141 magnetization      -0.0054308

 Broyden mixing:
  rms(total) = 0.19357E-02    rms(broyden)= 0.19355E-02
  rms(prec ) = 0.23989E-02
  weight for this iteration     100.00

 eigenvalues of (default mixing * dielectric matrix)
  average eigenvalue GAMMA=   1.3569
  2.9178  2.5350  1.3893  1.3893  0.9963  0.9963  0.7481  0.6325  0.6077

 Free energy of the ion-electron system (eV)
  ---------------------------------------------------
  alpha Z        PSCENC =       366.34210323
  Ewald energy   TEWEN  =     -7473.94793482
  -Hartree energ DENC   =     -1526.26931992
  -exchange      EXHF   =         0.00000000
  -V(xc)+E(xc)   XCENC  =     -1563.40271237
  PAW double counting   =     14646.92583195   -12566.64886556
  entropy T*S    EENTRO =        -0.00000000
  eigenvalues    EBANDS =      -822.97492403
  atomic energy  EATOM  =      8707.48247695
  Solvation  Ediel_sol  =         0.00000000
  ---------------------------------------------------
  free energy    TOTEN  =      -232.49334456 eV

  energy without entropy =     -232.49334456  energy(sigma->0) =     -232.49334456


--------------------------------------------------------------------------------------------------------




--------------------------------------- Iteration      1(  15)  ---------------------------------------


    POTLOK:  cpu time    0.0400: real time    0.0388
    SETDIJ:  cpu time    0.8040: real time    0.8041
     EDDAV:  cpu time    0.5680: real time    0.5692
       DOS:  cpu time    0.0000: real time    0.0005
    CHARGE:  cpu time    0.0320: real time    0.0293
    MIXING:  cpu time    0.0000: real time    0.0018
    --------------------------------------------
      LOOP:  cpu time    1.4440: real time    1.4437

 eigenvalue-minimisations  :  1008
 total energy-change (2. order) :-0.6431451E-04  (-0.5770580E-05)
 number of electron     250.0000343 magnetization      -0.0048720
 augmentation part      -34.1374388 magnetization      -0.0049987

 Broyden mixing:
  rms(total) = 0.89155E-03    rms(broyden)= 0.89145E-03
  rms(prec ) = 0.10612E-02
  weight for this iteration     100.00

 eigenvalues of (default mixing * dielectric matrix)
  average eigenvalue GAMMA=   1.3596
  2.9574  2.5192  2.0837  1.2840  1.0019  1.0019  0.8265  0.6926  0.6001  0.6281

 Free energy of the ion-electron system (eV)
  ---------------------------------------------------
  alpha Z        PSCENC =       366.34210323
  Ewald energy   TEWEN  =     -7473.94793482
  -Hartree energ DENC   =     -1526.34782256
  -exchange      EXHF   =         0.00000000
  -V(xc)+E(xc)   XCENC  =     -1563.40165929
  PAW double counting   =     14645.42470972   -12565.14720731
  entropy T*S    EENTRO =        -0.00000000
  eigenvalues    EBANDS =      -822.89807480
  atomic energy  EATOM  =      8707.48247695
  Solvation  Ediel_sol  =         0.00000000
  ---------------------------------------------------
  free energy    TOTEN  =      -232.49340888 eV

  energy without entropy =     -232.49340888  energy(sigma->0) =     -232.49340888


--------------------------------------------------------------------------------------------------------




--------------------------------------- Iteration      1(  16)  ---------------------------------------


    POTLOK:  cpu time    0.0400: real time    0.0382
    SETDIJ:  cpu time    0.8040: real time    0.8053
     EDDAV:  cpu time    0.5520: real time    0.5510
       DOS:  cpu time    0.0000: real time    0.0005
    --------------------------------------------
      LOOP:  cpu time    1.3960: real time    1.3950

 eigenvalue-minimisations  :   936
 total energy-change (2. order) :-0.8542725E-05  (-0.5029782E-06)
 number of electron     250.0000343 magnetization      -0.0048720
 augmentation part      -34.1374388 magnetization      -0.0049987

 Free energy of the ion-electron system (eV)
  ---------------------------------------------------
  alpha Z        PSCENC =       366.34210323
  Ewald energy   TEWEN  =     -7473.94793482
  -Hartree energ DENC   =     -1526.36431549
  -exchange      EXHF   =         0.00000000
  -V(xc)+E(xc)   XCENC  =     -1563.40060734
  PAW double counting   =     14646.05432050   -12565.77689760
  entropy T*S    EENTRO =        -0.00000000
  eigenvalues    EBANDS =      -822.88256286
  atomic energy  EATOM  =      8707.48247695
  Solvation  Ediel_sol  =         0.00000000
  ---------------------------------------------------
  free energy    TOTEN  =      -232.49341742 eV

  energy without entropy =     -232.49341742  energy(sigma->0) =     -232.49341742


--------------------------------------------------------------------------------------------------------




 average (electrostatic) potential at core
  the test charge radii are     1.0714  1.0808
  (the norm of the test charge is              1.0000)
       1 -40.1981       2 -39.8435       3 -39.8443       4 -39.9044       5 -39.8402
       6 -39.9017       7 -39.9025       8 -39.8679       9 -40.2019      10 -39.8441
      11 -39.8350      12 -39.9008      13 -39.8473      14 -39.9047      15 -39.8995
      16 -39.8680      17 -40.1938      18 -39.8417      19 -39.8448      20 -39.9041
      21 -39.8448      22 -39.9032      23 -39.9065      24 -39.8669      25 -40.2055
      26 -39.8452      27 -39.8378      28 -39.8974      29 -39.8413      30 -39.9008
      31 -39.8980      32 -39.8693      33 -55.7379      34 -55.7418      35 -55.7971
      36 -55.7379      37 -55.7934      38 -55.7981      39 -55.7671      40 -55.8069
      41 -55.7620      42 -55.7993      43 -55.7636      44 -55.8089      45 -55.7696
      46 -55.8069      47 -55.7616      48 -55.8038      49 -55.8101      50 -55.7645
      51 -55.7657      52 -55.8100      53 -55.8101      54 -55.7665      55 -55.7627
      56 -55.8072      57 -55.8086      58 -55.8022      59 -55.8077      60 -55.7621
      61 -55.7665      62 -55.7629      63 -55.7668
 
 
 
 E-fermi :   1.7834     XC(G=0):  -8.0428     alpha+bet : -7.0472


 spin component 1

 k-point     1 :       0.0000    0.0000    0.0000
  band No.  band energies     occupation 
      1     -11.0359      1.00000
      2     -10.7318      1.00000
      3     -10.7298      1.00000
      4     -10.7294      1.00000
      5     -10.7105      1.00000
      6     -10.7102      1.00000
      7     -10.6969      1.00000
      8     -10.5515      1.00000
      9     -10.5505      1.00000
     10     -10.5494      1.00000
     11     -10.5471      1.00000
     12     -10.5449      1.00000
     13     -10.5436      1.00000
     14     -10.5331      1.00000
     15     -10.5320      1.00000
     16     -10.5298      1.00000
     17     -10.5272      1.00000
     18     -10.5270      1.00000
     19     -10.5252      1.00000
     20     -10.5247      1.00000
     21     -10.5207      1.00000
     22     -10.5189      1.00000
     23     -10.4123      1.00000
     24     -10.3610      1.00000
     25     -10.3593      1.00000
     26     -10.3537      1.00000
     27     -10.3526      1.00000
     28     -10.3516      1.00000
     29     -10.3480      1.00000
     30     -10.3395      1.00000
     31     -10.3392      1.00000
     32      -2.6199      1.00000
     33      -2.6172      1.00000
     34      -2.6167      1.00000
     35      -2.6151      1.00000
     36      -2.3589      1.00000
     37      -2.3586      1.00000
     38      -2.3583      1.00000
     39      -2.3355      1.00000
     40      -2.0083      1.00000
     41      -2.0070      1.00000
     42      -2.0027      1.00000
     43      -2.0010      1.00000
     44      -1.9994      1.00000
     45      -1.9904      1.00000
     46      -1.9880      1.00000
     47      -1.9876      1.00000
     48      -1.9760      1.00000
     49      -1.9743      1.00000
     50      -1.9740      1.00000
     51      -1.9310      1.00000
     52      -1.9305      1.00000
     53      -1.9291      1.00000
     54      -1.8302      1.00000
     55      -1.8298      1.00000
     56      -1.8264      1.00000
     57      -1.5691      1.00000
     58      -1.3781      1.00000
     59      -1.3780      1.00000
     60      -1.3418      1.00000
     61      -1.3412      1.00000
     62      -1.3389      1.00000
     63      -1.3094      1.00000
     64      -1.3094      1.00000
     65      -1.3087      1.00000
     66      -1.2431      1.00000
     67      -1.2422      1.00000
     68      -1.2411      1.00000
     69      -0.9840      1.00000
     70      -0.9825      1.00000
     71      -0.9814      1.00000
     72      -0.9805      1.00000
     73      -0.9492      1.00000
     74      -0.9471      1.00000
     75      -0.9463      1.00000
     76      -0.9250      1.00000
     77      -0.9236      1.00000
     78      -0.9023      1.00000
     79      -0.9017      1.00000
     80      -0.8916      1.00000
     81      -0.8899      1.00000
     82      -0.8891      1.00000
     83      -0.8276      1.00000
     84      -0.7580      1.00000
     85      -0.7557      1.00000
     86      -0.7552      1.00000
     87      -0.6144      1.00000
     88      -0.6141      1.00000
     89      -0.6136      1.00000
     90      -0.4427      1.00000
     91      -0.4415      1.00000
     92      -0.4409      1.00000
     93      -0.1368      1.00000
     94      -0.1360      1.00000
     95      -0.1349      1.00000
     96      -0.1313      1.00000
     97      -0.1308      1.00000
     98      -0.1299      1.00000
     99      -0.1006      1.00000
    100      -0.1000      1.00000
    101      -0.0980      1.00000
    102      -0.0381      1.00000
    103      -0.0345      1.00000
    104      -0.0340      1.00000
    105       0.0812      1.00000
    106       0.0824      1.00000
    107       0.0981      1.00000
    108       0.0990      1.00000
    109       0.1004      1.00000
    110       0.1099      1.00000
    111       0.1248      1.00000
    112       0.1251      1.00000
    113       0.1273      1.00000
    114       0.1338      1.00000
    115       0.1344      1.00000
    116       0.1377      1.00000
    117       0.1406      1.00000
    118       0.1441      1.00000
    119       0.1447      1.00000
    120       0.1563      1.00000
    121       0.1577      1.00000
    122       0.4578      1.00000
    123       0.4587      1.00000
    124       0.4591      1.00000
    125       1.3050      1.00000
    126       3.2679      0.00000
    127       3.8954      0.00000
    128       3.8975      0.00000
    129       3.9308      0.00000
    130       3.9386      0.00000
    131       3.9500      0.00000
    132       4.0306      0.00000
    133       4.6229      0.00000
    134       4.6234      0.00000
    135       4.6235      0.00000
    136       4.7162      0.00000
    137       4.9580      0.00000
    138       4.9615      0.00000
    139       5.2087      0.00000
    140       5.2105      0.00000
    141       5.2157      0.00000
    142       5.3433      0.00000
    143       5.3434      0.00000
    144       5.3439      0.00000
    145       5.3560      0.00000
    146       5.5895      0.00000
    147       5.6709      0.00000
    148       5.6732      0.00000
    149       5.8430      0.00000
    150       5.8436      0.00000
    151       5.8482      0.00000
    152       5.9036      0.00000
    153       5.9055      0.00000
    154       5.9077      0.00000
    155       5.9085      0.00000
    156       5.9094      0.00000
    157       5.9364      0.00000
    158       5.9377      0.00000
    159       5.9389      0.00000
    160       5.9786      0.00000
    161       5.9857      0.00000
    162       5.9873      0.00000
    163       5.9880      0.00000
    164       6.0842      0.00000
    165       6.0858      0.00000
    166       6.1239      0.00000
    167       6.1273      0.00000
    168       6.1293      0.00000
    169       6.3964      0.00000
    170       6.6737      0.00000
    171       6.6755      0.00000
    172       6.6812      0.00000
    173       6.7582      0.00000
    174       6.7594      0.00000
    175       6.8158      0.00000
    176       6.8200      0.00000
    177       6.8232      0.00000
    178       7.0797      0.00000
    179       7.0832      0.00000
    180       7.0840      0.00000
    181       7.3094      0.00000
    182       7.3107      0.00000
    183       7.3112      0.00000
    184       7.4062      0.00000
    185       7.4074      0.00000
    186       7.4113      0.00000
    187       7.4161      0.00000
    188       7.4173      0.00000
    189       7.4181      0.00000
    190       7.4303      0.00000
    191       7.4331      0.00000
    192       7.4362      0.00000
    193       7.5251      0.00000
    194       7.5257      0.00000
    195       7.5262      0.00000
    196       7.5886      0.00000
    197       7.5932      0.00000
    198       7.5953      0.00000
    199       7.7366      0.00000
    200       7.7370      0.00000
    201       7.7919      0.00000
    202       7.7950      0.00000
    203       7.7968      0.00000
    204       7.8082      0.00000
    205       7.8753      0.00000
    206       7.8769      0.00000
    207       7.8801      0.00000
    208       7.8874      0.00000
    209       7.8886      0.00000
    210       7.8898      0.00000
    211       7.9652      0.00000
    212       7.9656      0.00000
    213       8.0432      0.00000
    214       8.0440      0.00000
    215       8.0483      0.00000
    216       8.1140      0.00000

 spin component 2

 k-point     1 :       0.0000    0.0000    0.0000
  band No.  band energies     occupation 
      1     -11.0359      1.00000
      2     -10.7318      1.00000
      3     -10.7298      1.00000
      4     -10.7294      1.00000
      5     -10.7105      1.00000
      6     -10.7102      1.00000
      7     -10.6969      1.00000
      8     -10.5515      1.00000
      9     -10.5505      1.00000
     10     -10.5494      1.00000
     11     -10.5471      1.00000
     12     -10.5449      1.00000
     13     -10.5436      1.00000
     14     -10.5331      1.00000
     15     -10.5320      1.00000
     16     -10.5298      1.00000
     17     -10.5272      1.00000
     18     -10.5270      1.00000
     19     -10.5252      1.00000
     20     -10.5247      1.00000
     21     -10.5207      1.00000
     22     -10.5189      1.00000
     23     -10.4123      1.00000
     24     -10.3610      1.00000
     25     -10.3593      1.00000
     26     -10.3537      1.00000
     27     -10.3526      1.00000
     28     -10.3516      1.00000
     29     -10.3480      1.00000
     30     -10.3395      1.00000
     31     -10.3392      1.00000
     32      -2.6200      1.00000
     33      -2.6173      1.00000
     34      -2.6168      1.00000
     35      -2.6152      1.00000
     36      -2.3589      1.00000
     37      -2.3586      1.00000
     38      -2.3583      1.00000
     39      -2.3356      1.00000
     40      -2.0083      1.00000
     41      -2.0071      1.00000
     42      -2.0028      1.00000
     43      -2.0011      1.00000
     44      -1.9995      1.00000
     45      -1.9905      1.00000
     46      -1.9881      1.00000
     47      -1.9877      1.00000
     48      -1.9761      1.00000
     49      -1.9743      1.00000
     50      -1.9740      1.00000
     51      -1.9311      1.00000
     52      -1.9305      1.00000
     53      -1.9292      1.00000
     54      -1.8302      1.00000
     55      -1.8298      1.00000
     56      -1.8265      1.00000
     57      -1.5692      1.00000
     58      -1.3782      1.00000
     59      -1.3781      1.00000
     60      -1.3419      1.00000
     61      -1.3412      1.00000
     62      -1.3390      1.00000
     63      -1.3095      1.00000
     64      -1.3094      1.00000
     65      -1.3087      1.00000
     66      -1.2432      1.00000
     67      -1.2423      1.00000
     68      -1.2411      1.00000
     69      -0.9840      1.00000
     70      -0.9825      1.00000
     71      -0.9814      1.00000
     72      -0.9806      1.00000
     73      -0.9493      1.00000
     74      -0.9472      1.00000
     75      -0.9464      1.00000
     76      -0.9251      1.00000
     77      -0.9237      1.00000
     78      -0.9023      1.00000
     79      -0.9018      1.00000
     80      -0.8917      1.00000
     81      -0.8900      1.00000
     82      -0.8892      1.00000
     83      -0.8277      1.00000
     84      -0.7580      1.00000
     85      -0.7557      1.00000
     86      -0.7553      1.00000
     87      -0.6144      1.00000
     88      -0.6141      1.00000
     89      -0.6136      1.00000
     90      -0.4427      1.00000
     91      -0.4416      1.00000
     92      -0.4410      1.00000
     93      -0.1368      1.00000
     94      -0.1360      1.00000
     95      -0.1349      1.00000
     96      -0.1314      1.00000
     97      -0.1308      1.00000
     98      -0.1300      1.00000
     99      -0.1006      1.00000
    100      -0.1000      1.00000
    101      -0.0981      1.00000
    102      -0.0382      1.00000
    103      -0.0345      1.00000
    104      -0.0340      1.00000
    105       0.0812      1.00000
    106       0.0823      1.00000
    107       0.0980      1.00000
    108       0.0990      1.00000
    109       0.1004      1.00000
    110       0.1099      1.00000
    111       0.1248      1.00000
    112       0.1251      1.00000
    113       0.1273      1.00000
    114       0.1337      1.00000
    115       0.1344      1.00000
    116       0.1377      1.00000
    117       0.1406      1.00000
    118       0.1441      1.00000
    119       0.1447      1.00000
    120       0.1563      1.00000
    121       0.1577      1.00000
    122       0.4578      1.00000
    123       0.4586      1.00000
    124       0.4591      1.00000
    125       1.3049      1.00000
    126       3.2677      0.00000
    127       3.8951      0.00000
    128       3.8972      0.00000
    129       3.9306      0.00000
    130       3.9384      0.00000
    131       3.9499      0.00000
    132       4.0303      0.00000
    133       4.6228      0.00000
    134       4.6232      0.00000
    135       4.6234      0.00000
    136       4.7160      0.00000
    137       4.9577      0.00000
    138       4.9612      0.00000
    139       5.2085      0.00000
    140       5.2103      0.00000
    141       5.2155      0.00000
    142       5.3432      0.00000
    143       5.3433      0.00000
    144       5.3438      0.00000
    145       5.3558      0.00000
    146       5.5893      0.00000
    147       5.6706      0.00000
    148       5.6729      0.00000
    149       5.8428      0.00000
    150       5.8434      0.00000
    151       5.8480      0.00000
    152       5.9035      0.00000
    153       5.9054      0.00000
    154       5.9076      0.00000
    155       5.9084      0.00000
    156       5.9093      0.00000
    157       5.9363      0.00000
    158       5.9375      0.00000
    159       5.9387      0.00000
    160       5.9785      0.00000
    161       5.9856      0.00000
    162       5.9872      0.00000
    163       5.9878      0.00000
    164       6.0841      0.00000
    165       6.0856      0.00000
    166       6.1238      0.00000
    167       6.1271      0.00000
    168       6.1291      0.00000
    169       6.3962      0.00000
    170       6.6735      0.00000
    171       6.6752      0.00000
    172       6.6810      0.00000
    173       6.7580      0.00000
    174       6.7592      0.00000
    175       6.8156      0.00000
    176       6.8198      0.00000
    177       6.8229      0.00000
    178       7.0795      0.00000
    179       7.0830      0.00000
    180       7.0838      0.00000
    181       7.3092      0.00000
    182       7.3105      0.00000
    183       7.3111      0.00000
    184       7.4061      0.00000
    185       7.4073      0.00000
    186       7.4111      0.00000
    187       7.4160      0.00000
    188       7.4171      0.00000
    189       7.4180      0.00000
    190       7.4302      0.00000
    191       7.4330      0.00000
    192       7.4361      0.00000
    193       7.5250      0.00000
    194       7.5255      0.00000
    195       7.5261      0.00000
    196       7.5884      0.00000
    197       7.5931      0.00000
    198       7.5952      0.00000
    199       7.7365      0.00000
    200       7.7369      0.00000
    201       7.7918      0.00000
    202       7.7949      0.00000
    203       7.7966      0.00000
    204       7.8080      0.00000
    205       7.8751      0.00000
    206       7.8768      0.00000
    207       7.8800      0.00000
    208       7.8873      0.00000
    209       7.8885      0.00000
    210       7.8897      0.00000
    211       7.9650      0.00000
    212       7.9656      0.00000
    213       8.0431      0.00000
    214       8.0441      0.00000
    215       8.0481      0.00000
    216       8.1145      0.00000


--------------------------------------------------------------------------------------------------------


 soft charge-density along one line, spin component           1
         0         1         2         3         4         5         6         7         8         9
 total charge-density along one line
 
 soft charge-density along one line, spin component           2
         0         1         2         3         4         5         6         7         8         9
 total charge-density along one line
 
 pseudopotential strength for first ion, spin component:           1
  2.998   9.622   0.002   0.002   0.002   0.004   0.004   0.004
  9.622  30.692   0.007   0.007   0.007   0.013   0.013   0.013
  0.002   0.007   6.986   0.000   0.000  10.380   0.000   0.000
  0.002   0.007   0.000   6.986   0.000   0.000  10.380   0.000
  0.002   0.007   0.000   0.000   6.986   0.000   0.000  10.380
  0.004   0.013  10.380   0.000   0.000  14.537   0.001   0.001
  0.004   0.013   0.000  10.380   0.000   0.001  14.537   0.001
  0.004   0.013   0.000   0.000  10.380   0.001   0.001  14.537
  0.000   0.001   0.005  -0.002   0.005   0.005  -0.002   0.005
  0.000   0.001   0.005   0.005  -0.002   0.005   0.005  -0.002
 -0.000  -0.000  -0.003   0.005  -0.003  -0.003   0.006  -0.003
  0.000   0.001  -0.002   0.005   0.005  -0.002   0.005   0.005
 -0.000  -0.000  -0.005  -0.000   0.004  -0.005  -0.000   0.005
 pseudopotential strength for first ion, spin component:           2
  2.998   9.622   0.002   0.002   0.002   0.004   0.004   0.004
[...]
   -.125E+01 -.111E+01 -.150E+01   0.118E+01 0.105E+01 0.137E+01   0.792E-01 0.588E-01 0.138E+00   -.442E-04 -.409E-04 -.125E-03
   -.635E+00 -.630E+00 0.674E+00   0.625E+00 0.618E+00 -.658E+00   0.154E-01 0.258E-01 -.174E-01   0.168E-04 0.137E-04 -.210E-04
   0.141E+02 -.142E+02 0.141E+02   -.133E+02 0.135E+02 -.133E+02   -.716E+00 0.747E+00 -.738E+00   0.157E-03 -.159E-03 0.149E-03
   0.894E+00 -.937E+00 -.206E+01   -.930E+00 0.972E+00 0.212E+01   0.281E-01 -.291E-01 -.700E-01   0.191E-04 -.244E-04 -.333E-03
   0.930E+00 0.229E+01 0.894E+00   -.959E+00 -.235E+01 -.924E+00   0.223E-01 0.617E-01 0.282E-01   0.302E-04 0.370E-03 0.389E-04
   0.155E+01 0.123E+01 -.113E+01   -.141E+01 -.117E+01 0.107E+01   -.144E+00 -.732E-01 0.583E-01   0.117E-03 0.346E-04 -.444E-04
   -.213E+01 -.922E+00 0.890E+00   0.219E+01 0.959E+00 -.921E+00   -.701E-01 -.317E-01 0.216E-01   -.347E-03 -.416E-04 0.493E-04
   -.120E+01 -.165E+01 -.110E+01   0.114E+01 0.151E+01 0.104E+01   0.673E-01 0.156E+00 0.506E-01   -.324E-04 -.132E-03 -.214E-04
   -.115E+01 0.121E+01 0.147E+01   0.109E+01 -.115E+01 -.134E+01   0.643E-01 -.717E-01 -.132E+00   -.427E-04 0.699E-04 0.104E-03
   -.644E+00 0.687E+00 -.611E+00   0.633E+00 -.677E+00 0.601E+00   0.169E-01 -.104E-01 0.226E-01   0.115E-04 -.822E-05 0.261E-04
   -.139E+02 0.139E+02 0.140E+02   0.132E+02 -.131E+02 -.132E+02   0.773E+00 -.779E+00 -.782E+00   -.154E-03 0.146E-03 0.192E-03
   -.842E+00 0.847E+00 -.210E+01   0.882E+00 -.885E+00 0.217E+01   -.260E-01 0.317E-01 -.683E-01   -.347E-04 0.354E-04 -.354E-03
   -.834E+00 -.208E+01 0.811E+00   0.868E+00 0.216E+01 -.844E+00   -.333E-01 -.801E-01 0.296E-01   -.375E-04 -.372E-03 0.193E-04
   -.146E+01 -.112E+01 -.117E+01   0.133E+01 0.106E+01 0.111E+01   0.131E+00 0.616E-01 0.719E-01   -.120E-03 -.369E-04 -.310E-04
   0.201E+01 0.794E+00 0.794E+00   -.209E+01 -.832E+00 -.828E+00   0.894E-01 0.400E-01 0.207E-01   0.346E-03 0.348E-04 0.254E-04
   0.110E+01 0.145E+01 -.107E+01   -.104E+01 -.132E+01 0.101E+01   -.579E-01 -.131E+00 0.560E-01   0.289E-04 0.128E-03 -.306E-04
   0.114E+01 -.111E+01 0.150E+01   -.108E+01 0.106E+01 -.136E+01   -.570E-01 0.554E-01 -.144E+00   0.464E-04 -.472E-04 0.117E-03
   0.612E+00 -.587E+00 -.549E+00   -.602E+00 0.578E+00 0.542E+00   -.181E-01 0.176E-01 0.107E-01   0.117E-04 0.232E-05 0.408E-04
   0.908E-01 -.221E+00 0.151E+00   -.906E-01 0.222E+00 -.155E+00   -.904E-03 0.162E-02 -.105E-02   -.504E-04 0.302E-04 0.216E-04
   0.113E+00 0.421E+00 -.515E-01   -.113E+00 -.419E+00 0.519E-01   -.698E-04 -.897E-02 0.152E-02   -.397E-04 0.282E-04 0.274E-04
   0.745E-02 0.207E+00 0.106E+00   -.343E-02 -.202E+00 -.109E+00   -.417E-02 -.105E-01 0.366E-02   -.888E-04 -.245E-04 -.114E-04
   -.187E+00 -.257E+00 -.816E-01   0.185E+00 0.258E+00 0.833E-01   0.574E-02 0.732E-03 -.597E-03   -.368E-04 0.535E-04 -.130E-04
   -.715E-01 -.191E+00 0.120E+00   0.686E-01 0.183E+00 -.119E+00   0.489E-02 0.153E-01 -.351E-02   0.751E-05 0.988E-04 0.669E-05
   -.802E-01 0.224E+00 -.182E+00   0.741E-01 -.215E+00 0.182E+00   0.956E-02 -.161E-01 0.404E-02   0.593E-05 -.223E-04 -.468E-04
   -.289E-01 0.159E+00 0.102E+00   0.288E-01 -.160E+00 -.104E+00   -.141E-02 0.747E-03 -.837E-03   0.140E-04 -.132E-04 0.465E-04
   0.115E+02 0.115E+02 0.136E+01   -.115E+02 -.115E+02 -.138E+01   0.533E-01 0.641E-01 0.264E-01   0.106E-02 0.970E-03 0.215E-03
   0.266E+01 0.281E+01 0.226E+00   -.267E+01 -.281E+01 -.219E+00   0.336E-02 -.909E-02 -.103E-01   0.576E-04 0.190E-04 0.502E-04
   0.114E+02 -.116E+02 -.167E+01   -.114E+02 0.117E+02 0.171E+01   0.669E-01 -.686E-01 -.392E-01   0.102E-02 -.106E-02 -.191E-03
   0.260E+01 -.275E+01 -.583E-01   -.261E+01 0.277E+01 0.545E-01   0.167E-02 0.165E-04 0.378E-03   0.381E-04 -.698E-05 -.115E-03
   -.115E+02 0.116E+02 -.154E+01   0.115E+02 -.117E+02 0.156E+01   -.565E-01 0.615E-01 -.198E-01   -.102E-02 0.105E-02 -.211E-03
   -.267E+01 0.284E+01 0.360E-01   0.269E+01 -.286E+01 -.406E-01   -.527E-02 -.561E-03 -.240E-02   -.346E-04 0.190E-04 -.439E-04
   -.113E+02 -.116E+02 0.138E+01   0.113E+02 0.117E+02 -.140E+01   -.679E-01 -.577E-01 0.320E-01   -.979E-03 -.105E-02 0.150E-03
   -.264E+01 -.285E+01 0.246E+00   0.265E+01 0.286E+01 -.242E+00   0.208E-02 0.993E-02 -.705E-02   0.263E-04 -.505E-04 0.120E-03
   0.114E+02 0.127E+01 0.113E+02   -.115E+02 -.131E+01 -.114E+02   0.684E-01 0.406E-01 0.746E-01   0.106E-02 0.254E-03 0.105E-02
   0.114E+02 -.171E+01 -.113E+02   -.115E+02 0.172E+01 0.114E+02   0.626E-01 -.212E-01 -.614E-01   0.102E-02 -.111E-03 -.977E-03
   0.262E+01 0.431E+00 0.260E+01   -.263E+01 -.431E+00 -.261E+01   0.670E-02 -.407E-02 0.462E-02   0.161E-05 0.691E-04 -.190E-04
   0.269E+01 0.120E+00 -.263E+01   -.270E+01 -.118E+00 0.265E+01   0.100E-01 -.115E-01 -.140E-01   0.957E-04 -.912E-04 -.482E-04
   -.114E+02 -.170E+01 0.114E+02   0.114E+02 0.172E+01 -.115E+02   -.543E-01 -.135E-01 0.573E-01   -.960E-03 -.160E-03 0.103E-02
   -.114E+02 0.121E+01 -.115E+02   0.115E+02 -.123E+01 0.115E+02   -.727E-01 0.336E-01 -.652E-01   -.101E-02 0.204E-03 -.107E-02
   -.265E+01 0.133E+00 0.269E+01   0.266E+01 -.135E+00 -.270E+01   -.166E-01 -.862E-02 0.110E-01   0.139E-04 -.419E-04 0.577E-04
   -.269E+01 0.345E+00 -.271E+01   0.270E+01 -.345E+00 0.272E+01   -.767E-03 0.109E-02 -.123E-02   -.349E-04 0.839E-04 -.351E-04
   0.150E+01 0.116E+02 0.115E+02   -.151E+01 -.116E+02 -.115E+02   0.229E-01 0.582E-01 0.535E-01   0.157E-03 0.973E-03 0.989E-03
   -.138E+01 0.115E+02 -.115E+02   0.140E+01 -.116E+02 0.115E+02   -.263E-01 0.657E-01 -.586E-01   -.235E-03 0.102E-02 -.105E-02
   -.141E+01 -.116E+02 0.112E+02   0.144E+01 0.116E+02 -.113E+02   -.468E-01 -.735E-01 0.752E-01   -.223E-03 -.105E-02 0.991E-03
   0.161E+01 -.116E+02 -.113E+02   -.163E+01 0.116E+02 0.113E+02   0.256E-01 -.601E-01 -.647E-01   0.976E-04 -.101E-02 -.993E-03
   -.108E-01 0.282E+01 0.265E+01   0.189E-01 -.283E+01 -.267E+01   -.555E-02 -.944E-03 0.541E-02   -.372E-06 -.313E-05 0.291E-04
   -.187E+00 0.283E+01 -.270E+01   0.183E+00 -.284E+01 0.271E+01   0.256E-02 -.624E-02 0.352E-02   -.410E-04 0.322E-04 -.206E-04
   -.269E+00 -.278E+01 0.258E+01   0.264E+00 0.279E+01 -.259E+01   0.608E-02 0.576E-02 -.691E-03   -.677E-04 -.480E-04 0.908E-05
   0.679E-01 -.283E+01 -.263E+01   -.683E-01 0.284E+01 0.264E+01   0.147E-02 0.264E-02 -.348E-02   0.977E-04 -.957E-04 -.430E-04
 -----------------------------------------------------------------------------------------------
   -.256E-01 0.136E-01 -.147E-01   -.629E-13 -.253E-13 -.622E-14   0.262E-01 -.783E-02 0.260E-01   -.589E-04 0.662E-04 -.105E-03
 
 
 POSITION                                       TOTAL-FORCE (eV/Angst)
 -----------------------------------------------------------------------------------
      0.13554      0.13284      0.13581         0.001889      0.008970      0.006643
     11.98280     11.98343      5.98741         0.009898      0.004261      0.007731
      0.00351      5.98483      0.00475        -0.000922      0.004555      0.001937
      0.00584      5.97990      5.97809         0.013334     -0.009268     -0.011186
      5.98281      0.00122      0.00307         0.003145      0.006245      0.011030
      5.96807      0.00864      5.97080         0.004639      0.007805      0.004863
      5.97367      5.97903      0.00779        -0.008114     -0.009670      0.010444
      5.99153      5.99600      5.99250        -0.005940     -0.011008     -0.004252
      2.86992      2.86596      0.13031        -0.008656      0.002908      0.010835
      2.99968      2.99632      5.98750        -0.017797      0.001824      0.007026
      2.99357      9.00291      0.00704        -0.000610     -0.006673      0.001814
      2.98880      9.01290      5.97043        -0.010178      0.003559     -0.002295
      8.99390      2.99482      0.00023        -0.001614     -0.002093      0.014893
      9.00422      2.98971      5.97975        -0.003146     -0.004802     -0.008562
      9.00682      9.00893      0.00729         0.010664      0.001421      0.009168
      8.98693      8.98670      5.99207         0.005969      0.013917     -0.001523
      2.84516      0.15218      2.85133         0.015732     -0.001995     -0.001414
      2.99467      0.00154      8.99636        -0.007817      0.006141     -0.005045
      2.99381      5.98546      2.99429        -0.006739      0.001144     -0.001534
      2.98828      5.98162      9.01199        -0.007328     -0.015057     -0.001985
      8.99290     11.98341      2.99631        -0.005639      0.005699     -0.009597
      9.00729      0.00474      9.01382         0.003719      0.014285     -0.010592
      9.00485      5.98372      2.98741         0.006635     -0.018377     -0.000886
      8.98762      5.99321      8.98767         0.006406     -0.000882      0.013016
      0.12210      2.87243      2.87727         0.005358     -0.005243     -0.004714
      0.00081      2.99577      8.99721         0.013434     -0.006137     -0.000499
      0.00521      9.00238      2.99539         0.000927     -0.004363     -0.002951
      0.00876      9.00756      9.01106        -0.000542      0.003688      0.002838
      5.98377      2.99612      3.00001         0.010918      0.002020     -0.012975
      5.97213      2.99066      9.00985        -0.000574     -0.003996     -0.004242
      5.96515      9.01265      2.98979         0.001212      0.003663     -0.007638
      5.99178      8.98803      8.98906        -0.008129      0.008626      0.003417
      1.49811      1.49889      7.49178        -0.000733      0.002521     -0.005458
      1.49821      7.49406      1.49952         0.000010     -0.007434      0.001697
      1.49957      7.49670      7.49095        -0.000257     -0.005565      0.000387
      7.48817      1.49901      1.49958         0.003174      0.002131      0.000948
      7.48747      1.49492      7.49449         0.001989      0.007420     -0.002737
      7.48601      7.49858      1.49858         0.003500     -0.007422      0.004083
      7.48984      7.49135      7.49189        -0.001554     -0.000578     -0.002906
      4.44769      4.44761      1.49188        -0.002939     -0.000306      0.005218
      4.49014      4.49653      7.49571        -0.008606     -0.016085     -0.003930
      4.43943     10.54316      1.50936        -0.006084      0.009180     -0.003082
      4.48980     10.49023      7.49078        -0.007953      0.011254     -0.003694
     10.53190      4.44769      1.50678        -0.003488      0.001786     -0.003229
     10.49066      4.49260      7.49219         0.006599     -0.012825     -0.007179
     10.53549     10.53651      1.49084        -0.004880      0.004767      0.008704
     10.48802     10.48675      7.49488         0.011491      0.017647     -0.003143
      4.44152      1.49238      4.44311        -0.005869      0.003189     -0.001001
      4.44534      1.50476     10.53503         0.002737     -0.004484     -0.001427
      4.48745      7.49271      4.49048        -0.007275     -0.003226     -0.008280
      4.48804      7.49666     10.49526        -0.003420     -0.009220      0.002882
     10.52876      1.50281      4.45103         0.002846      0.002928     -0.000726
     10.53772      1.49062     10.53851        -0.006807      0.009535     -0.002047
     10.49340      7.49530      4.48915        -0.000462     -0.010048     -0.004950
     10.48976      7.49011     10.49192         0.011486      0.000757      0.010202
      1.49050      4.44933      4.45099         0.007414     -0.001726      0.000877
      1.50643      4.44596     10.53673        -0.005167      0.002155     -0.000749
      1.50763     10.54326      4.44225        -0.013454     -0.000334      0.006615
      1.49103     10.53687     10.53704         0.004110      0.003252     -0.002465
      7.49283      4.49490      4.49145         0.002508     -0.011443     -0.008147
      7.48860      4.49423     10.49089        -0.001325     -0.016489      0.012917
      7.48604     10.48868      4.49206         0.001074      0.015350     -0.011672
      7.48868     10.48893     10.49234         0.001200      0.012146      0.008527
 -----------------------------------------------------------------------------------
    total drift:                                0.000518      0.005889      0.011236


--------------------------------------------------------------------------------------------------------



  FREE ENERGIE OF THE ION-ELECTRON SYSTEM (eV)
  ---------------------------------------------------
  free  energy   TOTEN  =      -232.49341742 eV

  energy  without entropy=     -232.49341742  energy(sigma->0) =     -232.49341742
 


--------------------------------------------------------------------------------------------------------


    POTLOK:  cpu time    0.8440: real time    0.8443


--------------------------------------------------------------------------------------------------------




--------------------------------------------------------------------------------------------------------


  
 reached required accuracy - stopping structural energy minimisation
     LOOP+:  cpu time   22.1920: real time   22.2711
    4ORBIT:  cpu time    0.0000: real time    0.0000
 


 total charge     
 
# of ion       s       p       d       tot
------------------------------------------
    1        0.172   0.114   0.020   0.307
    2        0.165   0.135   0.028   0.328
    3        0.165   0.135   0.028   0.328
    4        0.166   0.131   0.027   0.324
    5        0.165   0.135   0.028   0.329
    6        0.166   0.131   0.027   0.324
    7        0.166   0.131   0.027   0.324
    8        0.165   0.134   0.028   0.327
    9        0.172   0.114   0.020   0.306
   10        0.165   0.135   0.028   0.328
   11        0.166   0.135   0.028   0.329
   12        0.166   0.131   0.027   0.324
   13        0.165   0.135   0.028   0.328
   14        0.166   0.131   0.027   0.323
   15        0.166   0.131   0.027   0.324
   16        0.165   0.134   0.028   0.327
   17        0.172   0.113   0.020   0.305
   18        0.165   0.135   0.028   0.329
   19        0.165   0.135   0.028   0.328
   20        0.166   0.131   0.027   0.324
   21        0.165   0.135   0.028   0.328
   22        0.166   0.131   0.027   0.324
   23        0.165   0.131   0.027   0.323
   24        0.165   0.134   0.028   0.327
   25        0.172   0.114   0.020   0.306
   26        0.165   0.135   0.028   0.328
   27        0.165   0.135   0.028   0.329
   28        0.166   0.131   0.027   0.324
   29        0.165   0.135   0.028   0.328
   30        0.166   0.131   0.027   0.324
   31        0.166   0.131   0.027   0.324
   32        0.165   0.134   0.028   0.327
   33        1.427   2.530   0.008   3.965
   34        1.427   2.531   0.008   3.966
   35        1.431   2.515   0.008   3.953
   36        1.427   2.530   0.008   3.965
   37        1.431   2.514   0.008   3.952
   38        1.431   2.515   0.008   3.954
   39        1.427   2.533   0.008   3.968
   40        1.430   2.517   0.008   3.955
   41        1.427   2.529   0.008   3.964
   42        1.430   2.517   0.008   3.956
   43        1.427   2.530   0.008   3.965
   44        1.430   2.517   0.008   3.955
   45        1.427   2.530   0.008   3.965
   46        1.430   2.518   0.008   3.956
   47        1.427   2.529   0.008   3.964
   48        1.430   2.517   0.008   3.956
   49        1.430   2.518   0.008   3.956
   50        1.427   2.530   0.008   3.965
   51        1.427   2.530   0.008   3.965
   52        1.430   2.518   0.008   3.956
   53        1.430   2.518   0.008   3.956
   54        1.427   2.530   0.008   3.965
   55        1.427   2.529   0.008   3.964
   56        1.430   2.517   0.008   3.955
   57        1.430   2.517   0.008   3.955
   58        1.430   2.517   0.008   3.956
   59        1.430   2.518   0.008   3.957
   60        1.427   2.528   0.008   3.964
   61        1.427   2.529   0.008   3.965
   62        1.427   2.529   0.008   3.965
   63        1.427   2.530   0.008   3.965
--------------------------------------------------
tot         49.606  82.413   1.108 133.127
 


 magnetization (x)
 
# of ion       s       p       d       tot
------------------------------------------
    1       -0.000  -0.000   0.000  -0.000
    2       -0.000  -0.000   0.000  -0.000
    3       -0.000  -0.000   0.000  -0.000
    4       -0.000  -0.000   0.000  -0.000
    5       -0.000  -0.000   0.000  -0.000
    6       -0.000  -0.000   0.000  -0.000
    7       -0.000  -0.000   0.000  -0.000
    8       -0.000  -0.000   0.000  -0.000
    9       -0.000  -0.000   0.000  -0.000
   10       -0.000  -0.000   0.000  -0.000
   11       -0.000  -0.000   0.000  -0.000
   12       -0.000  -0.000   0.000  -0.000
   13       -0.000  -0.000   0.000  -0.000
   14       -0.000  -0.000   0.000  -0.000
   15       -0.000  -0.000   0.000  -0.000
   16       -0.000  -0.000   0.000  -0.000
   17       -0.000  -0.000   0.000  -0.000
   18       -0.000  -0.000   0.000  -0.000
   19       -0.000  -0.000   0.000  -0.000
   20       -0.000  -0.000   0.000  -0.000
   21       -0.000  -0.000   0.000  -0.000
   22       -0.000  -0.000   0.000  -0.000
   23       -0.000  -0.000   0.000  -0.000
   24       -0.000  -0.000   0.000  -0.000
   25       -0.000  -0.000   0.000  -0.000
   26       -0.000  -0.000   0.000  -0.000
   27       -0.000  -0.000   0.000  -0.000
   28       -0.000  -0.000   0.000  -0.000
   29       -0.000  -0.000   0.000  -0.000
   30       -0.000  -0.000   0.000  -0.000
   31       -0.000  -0.000   0.000  -0.000
   32       -0.000  -0.000   0.000  -0.000
   33        0.000   0.000   0.000   0.000
   34        0.000   0.000   0.000   0.000
   35        0.000   0.000   0.000   0.000
   36        0.000   0.000   0.000   0.000
   37        0.000   0.000   0.000   0.000
   38        0.000   0.000   0.000   0.000
   39        0.000   0.000   0.000   0.000
   40        0.000   0.000   0.000   0.000
   41        0.000   0.000   0.000   0.000
   42        0.000   0.000   0.000   0.000
   43        0.000   0.000   0.000   0.000
   44        0.000   0.000   0.000   0.000
   45        0.000   0.000   0.000   0.000
   46        0.000   0.000   0.000   0.000
   47        0.000   0.000   0.000   0.000
   48        0.000   0.000   0.000   0.000
   49        0.000   0.000   0.000   0.000
   50        0.000   0.000   0.000   0.000
   51        0.000   0.000   0.000   0.000
   52        0.000   0.000   0.000   0.000
   53        0.000   0.000   0.000   0.000
   54        0.000   0.000   0.000   0.000
   55        0.000   0.000   0.000   0.000
   56        0.000   0.000   0.000   0.000
   57        0.000   0.000   0.000   0.000
   58        0.000   0.000   0.000   0.000
   59        0.000   0.000   0.000   0.000
   60        0.000   0.000   0.000   0.000
   61        0.000   0.000   0.000   0.000
   62        0.000   0.000   0.000   0.000
   63        0.000   0.000   0.000   0.000
--------------------------------------------------
tot          0.000   0.001   0.000   0.001
 

 total amount of memory used by VASP MPI-rank0    53725. kBytes
=======================================================================

   base      :      30000. kBytes
   nonlr-proj:       9418. kBytes
   fftplans  :       1394. kBytes
   grid      :      11169. kBytes
   one-center:        511. kBytes
   wavefun   :       1233. kBytes
 
  
  
 General timing and accounting informations for this job:
 ========================================================
  
                  Total CPU time used (sec):       23.368
                            User time (sec):       23.188
                          System time (sec):        0.180
                         Elapsed time (sec):       23.550
  
                   Maximum memory used (kb):      108884.
                   Average memory used (kb):           0.
  
                          Minor page faults:        52786
                          Major page faults:            0
                 Voluntary context switches:          966
